
     Program PWSCF v.7.2 starts on 12May2024 at 16:46:36 

     This program is part of the open-source Quantum ESPRESSO suite
     for quantum simulation of materials; please cite
         "P. Giannozzi et al., J. Phys.:Condens. Matter 21 395502 (2009);
         "P. Giannozzi et al., J. Phys.:Condens. Matter 29 465901 (2017);
         "P. Giannozzi et al., J. Chem. Phys. 152 154105 (2020);
          URL http://www.quantum-espresso.org", 
     in publications or presentations arising from this work. More details at
     http://www.quantum-espresso.org/quote

     Serial version
     0 MiB available memory on the printing compute node when the environment starts

     Waiting for input...
     Reading input from standard input
Warning: card   2 2 2 0 0 0 ignored

     Current dimensions of program PWSCF are:
     Max number of different atomic species (ntypx) = 10
     Max number of k-points (npk) =  40000
     Max angular momentum in pseudopotentials (lmaxx) =  4
     file Ga.rel-pbe-dn-rrkjus_psl.0.2.UPF: wavefunction(s)  4S 3D 3D renormalized


     G-vector sticks info
     --------------------
     sticks:   dense  smooth     PW     G-vecs:    dense   smooth      PW
     Sum        1573     793    253                41391    14649    2637

     Using Slab Decomposition



     bravais-lattice index     =            2
     lattice parameter (alat)  =      10.7074  a.u.
     unit-cell volume          =     306.8946 (a.u.)^3
     number of atoms/cell      =            2
     number of atomic types    =            2
     number of electrons       =        18.00
     number of Kohn-Sham states=           26
     kinetic-energy cutoff     =      50.0000  Ry
     charge density cutoff     =     400.0000  Ry
     scf convergence threshold =      1.0E-08
     mixing beta               =       0.3000
     number of iterations used =            8  plain     mixing
     Exchange-correlation= PBE
                           (   1   4   3   4   0   0   0)
     Non magnetic calculation with spin-orbit


     celldm(1)=  10.707376  celldm(2)=   0.000000  celldm(3)=   0.000000
     celldm(4)=   0.000000  celldm(5)=   0.000000  celldm(6)=   0.000000

     crystal axes: (cart. coord. in units of alat)
               a(1) = (  -0.500000   0.000000   0.500000 )  
               a(2) = (   0.000000   0.500000   0.500000 )  
               a(3) = (  -0.500000   0.500000   0.000000 )  

     reciprocal axes: (cart. coord. in units 2 pi/alat)
               b(1) = ( -1.000000 -1.000000  1.000000 )  
               b(2) = (  1.000000  1.000000  1.000000 )  
               b(3) = ( -1.000000  1.000000 -1.000000 )  


     PseudoPot. # 1 for As read from file:
     ../pseudopotential/As.rel-pbe-n-rrkjus_psl.0.2.UPF
     MD5 check sum: fd1d9cb43fef956eb1cdd0c60ce90062
     Pseudo is Ultrasoft + core correction, Zval =  5.0
     Generated using "atomic" code by A. Dal Corso  v.5.0.2 svn rev. 9415
     Using radial grid of 1209 points,  6 beta functions with: 
                l(1) =   0
                l(2) =   0
                l(3) =   1
                l(4) =   1
                l(5) =   1
                l(6) =   1
     Q(r) pseudized with 0 coefficients 


     PseudoPot. # 2 for Ga read from file:
     ../pseudopotential/Ga.rel-pbe-dn-rrkjus_psl.0.2.UPF
     MD5 check sum: b82f27152fdba9c8aaf7d704465ad383
     Pseudo is Ultrasoft + core correction, Zval = 13.0
     Generated using "atomic" code by A. Dal Corso  v.5.0.2 svn rev. 9415
     Using radial grid of 1205 points, 10 beta functions with: 
                l(1) =   0
                l(2) =   0
                l(3) =   1
                l(4) =   1
                l(5) =   1
                l(6) =   1
                l(7) =   2
                l(8) =   2
                l(9) =   2
               l(10) =   2
     Q(r) pseudized with 0 coefficients 


     atomic species   valence    mass     pseudopotential
        As             5.00    74.92160     As( 1.00)
        Ga            13.00    69.72000     Ga( 1.00)

     No symmetry found



   Cartesian axes

     site n.     atom                  positions (alat units)
         1           Ga  tau(   1) = (   0.0000000   0.0000000   0.0000000  )
         2           As  tau(   2) = (   0.2500000   0.2500000   0.2500000  )

     number of k points=   256  Gaussian smearing, width (Ry)=  0.0020

     Number of k-points >= 100: set verbosity='high' to print them.

     Dense  grid:    41391 G-vectors     FFT dimensions: (  50,  50,  50)

     Smooth grid:    14649 G-vectors     FFT dimensions: (  36,  36,  36)

     Estimated max dynamical RAM per process >     848.28 MB

     Initial potential from superposition of free atoms

     starting charge      17.9971, renormalised to      18.0000
     Starting wfcs are   26 randomized atomic wfcs

     total cpu time spent up to now is       15.7 secs

     Self-consistent Calculation

     iteration #  1     ecut=    50.00 Ry     beta= 0.30
     Davidson diagonalization with overlap
     ethr =  1.00E-02,  avg # of iterations =  3.9

     Threshold (ethr) on eigenvalues was too large:
     Diagonalizing with lowered threshold

     Davidson diagonalization with overlap
     ethr =  2.56E-04,  avg # of iterations =  2.4

     total cpu time spent up to now is      106.0 secs

     total energy              =    -191.00352205 Ry
     estimated scf accuracy    <       0.04596218 Ry

     iteration #  2     ecut=    50.00 Ry     beta= 0.30
     Davidson diagonalization with overlap
     ethr =  2.55E-04,  avg # of iterations =  1.2

     total cpu time spent up to now is      143.4 secs

     total energy              =    -191.00377792 Ry
     estimated scf accuracy    <       0.01298319 Ry

     iteration #  3     ecut=    50.00 Ry     beta= 0.30
     Davidson diagonalization with overlap
     ethr =  7.21E-05,  avg # of iterations =  1.5

     total cpu time spent up to now is      179.6 secs

     total energy              =    -191.00446236 Ry
     estimated scf accuracy    <       0.00223184 Ry

     iteration #  4     ecut=    50.00 Ry     beta= 0.30
     Davidson diagonalization with overlap
     ethr =  1.24E-05,  avg # of iterations =  2.3

     total cpu time spent up to now is      218.0 secs

     total energy              =    -191.00456331 Ry
     estimated scf accuracy    <       0.00005178 Ry

     iteration #  5     ecut=    50.00 Ry     beta= 0.30
     Davidson diagonalization with overlap
     ethr =  2.88E-07,  avg # of iterations =  3.1

     total cpu time spent up to now is      267.7 secs

     total energy              =    -191.00458491 Ry
     estimated scf accuracy    <       0.00002462 Ry

     iteration #  6     ecut=    50.00 Ry     beta= 0.30
     Davidson diagonalization with overlap
     ethr =  1.37E-07,  avg # of iterations =  1.0

     total cpu time spent up to now is      303.0 secs

     total energy              =    -191.00458359 Ry
     estimated scf accuracy    <       0.00000457 Ry

     iteration #  7     ecut=    50.00 Ry     beta= 0.30
     Davidson diagonalization with overlap
     ethr =  2.54E-08,  avg # of iterations =  2.0

     total cpu time spent up to now is      348.4 secs

     total energy              =    -191.00458562 Ry
     estimated scf accuracy    <       0.00000120 Ry

     iteration #  8     ecut=    50.00 Ry     beta= 0.30
     Davidson diagonalization with overlap
     ethr =  6.65E-09,  avg # of iterations =  1.0

     total cpu time spent up to now is      383.6 secs

     total energy              =    -191.00458527 Ry
     estimated scf accuracy    <       0.00000058 Ry

     iteration #  9     ecut=    50.00 Ry     beta= 0.30
     Davidson diagonalization with overlap
     ethr =  3.22E-09,  avg # of iterations =  2.0

     total cpu time spent up to now is      427.2 secs

     End of self-consistent calculation

     Number of k-points >= 100: set verbosity='high' to print the bands.

     the Fermi energy is     7.2363 ev

!    total energy              =    -191.00458541 Ry
     estimated scf accuracy    <          1.5E-09 Ry
     smearing contrib. (-TS)   =      -0.00000000 Ry
     internal energy E=F+TS    =    -191.00458541 Ry

     The total energy is F=E-TS. E is the sum of the following terms:
     one-electron contribution =    -112.09965104 Ry
     hartree contribution      =      71.80582183 Ry
     xc contribution           =     -57.90418256 Ry
     ewald contribution        =     -92.80657363 Ry

     convergence has been achieved in   9 iterations

     Writing all to output data dir ./GaAs.save/

     init_run     :     56.01s CPU     15.35s WALL (       1 calls)
     electrons    :   1819.67s CPU    411.51s WALL (       1 calls)

     Called by init_run:
     wfcinit      :     54.36s CPU     14.35s WALL (       1 calls)
     potinit      :      0.04s CPU      0.05s WALL (       1 calls)
     hinit0       :      0.61s CPU      0.61s WALL (       1 calls)

     Called by electrons:
     c_bands      :   1491.16s CPU    340.07s WALL (      10 calls)
     sum_band     :    319.60s CPU     69.02s WALL (      10 calls)
     v_of_rho     :      1.08s CPU      0.41s WALL (      10 calls)
     newd         :      7.91s CPU      2.05s WALL (      10 calls)
     mix_rho      :      0.53s CPU      0.18s WALL (      10 calls)

     Called by c_bands:
     init_us_2    :     19.99s CPU      2.99s WALL (    5376 calls)
     init_us_2:cp :     19.93s CPU      2.98s WALL (    5376 calls)
     cegterg      :   1368.44s CPU    322.28s WALL (    2560 calls)

     Called by *egterg:
     cdiaghg      :     37.83s CPU      5.19s WALL (    7504 calls)
     h_psi        :   1167.66s CPU    294.97s WALL (    8016 calls)
     s_psi        :     24.79s CPU      5.33s WALL (    8016 calls)
     g_psi        :      6.15s CPU      0.96s WALL (    5200 calls)

     Called by h_psi:
     h_psi:calbec :     34.11s CPU      8.78s WALL (    8016 calls)
     vloc_psi     :   1108.41s CPU    280.12s WALL (    8016 calls)
     add_vuspsi   :     19.18s CPU      5.05s WALL (    8016 calls)

     General routines
     calbec       :     52.12s CPU     13.03s WALL (   10576 calls)
     fft          :      1.18s CPU      0.43s WALL (     240 calls)
     ffts         :      0.14s CPU      0.04s WALL (      80 calls)
     fftw         :   1091.77s CPU    268.22s WALL (  770404 calls)
     interpolate  :      0.29s CPU      0.10s WALL (      40 calls)


     PWSCF        :  31m17.80s CPU   7m 7.70s WALL


   This run was terminated on:  16:53:43  12May2024            

=------------------------------------------------------------------------------=
   JOB DONE.
=------------------------------------------------------------------------------=
