
     Program PWSCF v.7.2 starts on 12May2024 at 16:35: 6 

     This program is part of the open-source Quantum ESPRESSO suite
     for quantum simulation of materials; please cite
         "P. Giannozzi et al., J. Phys.:Condens. Matter 21 395502 (2009);
         "P. Giannozzi et al., J. Phys.:Condens. Matter 29 465901 (2017);
         "P. Giannozzi et al., J. Chem. Phys. 152 154105 (2020);
          URL http://www.quantum-espresso.org", 
     in publications or presentations arising from this work. More details at
     http://www.quantum-espresso.org/quote

     Serial version
     0 MiB available memory on the printing compute node when the environment starts

     Waiting for input...
     Reading input from standard input
Warning: card   2 2 2 0 0 0 ignored

     Current dimensions of program PWSCF are:
     Max number of different atomic species (ntypx) = 10
     Max number of k-points (npk) =  40000
     Max angular momentum in pseudopotentials (lmaxx) =  4
     file Ga.rel-pbe-dn-rrkjus_psl.0.2.UPF: wavefunction(s)  4S 3D 3D renormalized


     G-vector sticks info
     --------------------
     sticks:   dense  smooth     PW     G-vecs:    dense   smooth      PW
     Sum        1573     793    241                41391    14649    2445

     Using Slab Decomposition



     bravais-lattice index     =            2
     lattice parameter (alat)  =      10.7074  a.u.
     unit-cell volume          =     306.8946 (a.u.)^3
     number of atoms/cell      =            2
     number of atomic types    =            2
     number of electrons       =        18.00
     number of Kohn-Sham states=           26
     kinetic-energy cutoff     =      50.0000  Ry
     charge density cutoff     =     400.0000  Ry
     scf convergence threshold =      1.0E-08
     mixing beta               =       0.3000
     number of iterations used =            8  plain     mixing
     Exchange-correlation= PBE
                           (   1   4   3   4   0   0   0)
     Non magnetic calculation with spin-orbit


     celldm(1)=  10.707376  celldm(2)=   0.000000  celldm(3)=   0.000000
     celldm(4)=   0.000000  celldm(5)=   0.000000  celldm(6)=   0.000000

     crystal axes: (cart. coord. in units of alat)
               a(1) = (  -0.500000   0.000000   0.500000 )  
               a(2) = (   0.000000   0.500000   0.500000 )  
               a(3) = (  -0.500000   0.500000   0.000000 )  

     reciprocal axes: (cart. coord. in units 2 pi/alat)
               b(1) = ( -1.000000 -1.000000  1.000000 )  
               b(2) = (  1.000000  1.000000  1.000000 )  
               b(3) = ( -1.000000  1.000000 -1.000000 )  


     PseudoPot. # 1 for As read from file:
     ../pseudopotential/As.rel-pbe-n-rrkjus_psl.0.2.UPF
     MD5 check sum: fd1d9cb43fef956eb1cdd0c60ce90062
     Pseudo is Ultrasoft + core correction, Zval =  5.0
     Generated using "atomic" code by A. Dal Corso  v.5.0.2 svn rev. 9415
     Using radial grid of 1209 points,  6 beta functions with: 
                l(1) =   0
                l(2) =   0
                l(3) =   1
                l(4) =   1
                l(5) =   1
                l(6) =   1
     Q(r) pseudized with 0 coefficients 


     PseudoPot. # 2 for Ga read from file:
     ../pseudopotential/Ga.rel-pbe-dn-rrkjus_psl.0.2.UPF
     MD5 check sum: b82f27152fdba9c8aaf7d704465ad383
     Pseudo is Ultrasoft + core correction, Zval = 13.0
     Generated using "atomic" code by A. Dal Corso  v.5.0.2 svn rev. 9415
     Using radial grid of 1205 points, 10 beta functions with: 
                l(1) =   0
                l(2) =   0
                l(3) =   1
                l(4) =   1
                l(5) =   1
                l(6) =   1
                l(7) =   2
                l(8) =   2
                l(9) =   2
               l(10) =   2
     Q(r) pseudized with 0 coefficients 


     atomic species   valence    mass     pseudopotential
        As             5.00    74.92160     As( 1.00)
        Ga            13.00    69.72000     Ga( 1.00)

     No symmetry found



   Cartesian axes

     site n.     atom                  positions (alat units)
         1           Ga  tau(   1) = (   0.0000000   0.0000000   0.0000000  )
         2           As  tau(   2) = (   0.2500000   0.2500000   0.2500000  )

     number of k points=    32  Gaussian smearing, width (Ry)=  0.0020
                       cart. coord. in units 2pi/alat
        k(    1) = (  -0.1250000   0.1250000   0.1250000), wk =   0.0312500
        k(    2) = (  -0.3750000   0.3750000  -0.1250000), wk =   0.0312500
        k(    3) = (   0.3750000  -0.3750000   0.6250000), wk =   0.0312500
        k(    4) = (   0.1250000  -0.1250000   0.3750000), wk =   0.0312500
        k(    5) = (   0.1250000   0.3750000   0.3750000), wk =   0.0312500
        k(    6) = (  -0.1250000   0.6250000   0.1250000), wk =   0.0312500
        k(    7) = (   0.6250000  -0.1250000   0.8750000), wk =   0.0312500
        k(    8) = (   0.3750000   0.1250000   0.6250000), wk =   0.0312500
        k(    9) = (  -0.6250000  -0.3750000  -0.3750000), wk =   0.0312500
        k(   10) = (  -0.8750000  -0.1250000  -0.6250000), wk =   0.0312500
        k(   11) = (  -0.1250000  -0.8750000   0.1250000), wk =   0.0312500
        k(   12) = (  -0.3750000  -0.6250000  -0.1250000), wk =   0.0312500
        k(   13) = (  -0.3750000  -0.1250000  -0.1250000), wk =   0.0312500
        k(   14) = (  -0.6250000   0.1250000  -0.3750000), wk =   0.0312500
        k(   15) = (   0.1250000  -0.6250000   0.3750000), wk =   0.0312500
        k(   16) = (  -0.1250000  -0.3750000   0.1250000), wk =   0.0312500
        k(   17) = (  -0.3750000  -0.1250000   0.3750000), wk =   0.0312500
        k(   18) = (  -0.6250000   0.1250000   0.1250000), wk =   0.0312500
        k(   19) = (   0.1250000  -0.6250000   0.8750000), wk =   0.0312500
        k(   20) = (  -0.1250000  -0.3750000   0.6250000), wk =   0.0312500
        k(   21) = (  -0.1250000   0.1250000   0.6250000), wk =   0.0312500
        k(   22) = (  -0.3750000   0.3750000   0.3750000), wk =   0.0312500
        k(   23) = (   0.3750000  -0.3750000   1.1250000), wk =   0.0312500
        k(   24) = (   0.1250000  -0.1250000   0.8750000), wk =   0.0312500
        k(   25) = (  -0.8750000  -0.6250000  -0.1250000), wk =   0.0312500
        k(   26) = (  -1.1250000  -0.3750000  -0.3750000), wk =   0.0312500
        k(   27) = (  -0.3750000  -1.1250000   0.3750000), wk =   0.0312500
        k(   28) = (  -0.6250000  -0.8750000   0.1250000), wk =   0.0312500
        k(   29) = (  -0.6250000  -0.3750000   0.1250000), wk =   0.0312500
        k(   30) = (  -0.8750000  -0.1250000  -0.1250000), wk =   0.0312500
        k(   31) = (  -0.1250000  -0.8750000   0.6250000), wk =   0.0312500
        k(   32) = (  -0.3750000  -0.6250000   0.3750000), wk =   0.0312500

     Dense  grid:    41391 G-vectors     FFT dimensions: (  50,  50,  50)

     Smooth grid:    14649 G-vectors     FFT dimensions: (  36,  36,  36)

     Estimated max dynamical RAM per process >     522.67 MB

     Initial potential from superposition of free atoms

     starting charge      17.9971, renormalised to      18.0000
     Starting wfcs are   26 randomized atomic wfcs

     total cpu time spent up to now is        3.0 secs

     Self-consistent Calculation

     iteration #  1     ecut=    50.00 Ry     beta= 0.30
     Davidson diagonalization with overlap
     ethr =  1.00E-02,  avg # of iterations =  4.0

     Threshold (ethr) on eigenvalues was too large:
     Diagonalizing with lowered threshold

     Davidson diagonalization with overlap
     ethr =  2.59E-04,  avg # of iterations =  2.4

     total cpu time spent up to now is       14.1 secs

     total energy              =    -191.00321445 Ry
     estimated scf accuracy    <       0.04637209 Ry

     iteration #  2     ecut=    50.00 Ry     beta= 0.30
     Davidson diagonalization with overlap
     ethr =  2.58E-04,  avg # of iterations =  1.2

     total cpu time spent up to now is       18.8 secs

     total energy              =    -191.00346041 Ry
     estimated scf accuracy    <       0.01312535 Ry

     iteration #  3     ecut=    50.00 Ry     beta= 0.30
     Davidson diagonalization with overlap
     ethr =  7.29E-05,  avg # of iterations =  1.3

     total cpu time spent up to now is       23.7 secs

     total energy              =    -191.00415335 Ry
     estimated scf accuracy    <       0.00226148 Ry

     iteration #  4     ecut=    50.00 Ry     beta= 0.30
     Davidson diagonalization with overlap
     ethr =  1.26E-05,  avg # of iterations =  2.3

     total cpu time spent up to now is       28.8 secs

     total energy              =    -191.00425666 Ry
     estimated scf accuracy    <       0.00005249 Ry

     iteration #  5     ecut=    50.00 Ry     beta= 0.30
     Davidson diagonalization with overlap
     ethr =  2.92E-07,  avg # of iterations =  2.8

     total cpu time spent up to now is       35.4 secs

     total energy              =    -191.00427872 Ry
     estimated scf accuracy    <       0.00002012 Ry

     iteration #  6     ecut=    50.00 Ry     beta= 0.30
     Davidson diagonalization with overlap
     ethr =  1.12E-07,  avg # of iterations =  1.0

     total cpu time spent up to now is       40.4 secs

     total energy              =    -191.00427731 Ry
     estimated scf accuracy    <       0.00000440 Ry

     iteration #  7     ecut=    50.00 Ry     beta= 0.30
     Davidson diagonalization with overlap
     ethr =  2.44E-08,  avg # of iterations =  2.0

     total cpu time spent up to now is       46.7 secs

     total energy              =    -191.00427901 Ry
     estimated scf accuracy    <       0.00000079 Ry

     iteration #  8     ecut=    50.00 Ry     beta= 0.30
     Davidson diagonalization with overlap
     ethr =  4.40E-09,  avg # of iterations =  1.0

     total cpu time spent up to now is       51.7 secs

     total energy              =    -191.00427881 Ry
     estimated scf accuracy    <       0.00000032 Ry

     iteration #  9     ecut=    50.00 Ry     beta= 0.30
     Davidson diagonalization with overlap
     ethr =  1.79E-09,  avg # of iterations =  2.0

     total cpu time spent up to now is       57.3 secs

     total energy              =    -191.00427890 Ry
     estimated scf accuracy    <       0.00000001 Ry

     iteration # 10     ecut=    50.00 Ry     beta= 0.30
     Davidson diagonalization with overlap
     ethr =  5.90E-11,  avg # of iterations =  2.0

     total cpu time spent up to now is       63.0 secs

     End of self-consistent calculation

          k =-0.1250 0.1250 0.1250 (  1847 PWs)   bands (ev):

    -8.3370  -8.3370  -8.3286  -8.3244  -7.9077  -7.9077  -7.8553  -7.8553
    -7.8530  -7.8483  -5.8061  -5.8061   4.7237   4.7237   6.3555   6.3555
     6.5690   6.5720   8.2535   8.2535  10.6977  10.6977  10.8388  10.8401
    10.8908  10.8908

          k =-0.3750 0.3750-0.1250 (  1842 PWs)   bands (ev):

    -8.3594  -8.3405  -8.3236  -8.3206  -7.9314  -7.8980  -7.8700  -7.8622
    -7.8438  -7.8384  -4.9443  -4.9405   1.8562   1.8796   4.5706   4.6180
     5.9832   5.9835   8.9641   9.0094  11.3880  11.4027  11.4726  11.4829
    12.8118  12.8271

          k = 0.3750-0.3750 0.6250 (  1836 PWs)   bands (ev):

    -8.3705  -8.3417  -8.3219  -8.3210  -7.9394  -7.8911  -7.8787  -7.8671
    -7.8350  -7.8340  -4.1717  -4.1690   0.2271   0.2456   4.4784   4.5176
     5.2624   5.2666   8.7319   8.7621  11.0260  11.0339  11.9974  11.9983
    14.4245  14.4420

          k = 0.1250-0.1250 0.3750 (  1840 PWs)   bands (ev):

    -8.3495  -8.3380  -8.3256  -8.3238  -7.9205  -7.9046  -7.8623  -7.8593
    -7.8473  -7.8441  -5.3487  -5.3467   3.0555   3.0718   5.4427   5.4912
     5.6137   5.6279   9.1829   9.2377  10.1131  10.1337  12.1128  12.1231
    12.2189  12.2376

          k = 0.1250 0.3750 0.3750 (  1842 PWs)   bands (ev):

    -8.3594  -8.3405  -8.3236  -8.3206  -7.9314  -7.8980  -7.8700  -7.8622
    -7.8438  -7.8384  -4.9443  -4.9405   1.8562   1.8796   4.5706   4.6180
     5.9832   5.9835   8.9641   9.0094  11.3880  11.4027  11.4726  11.4829
    12.8118  12.8271

          k =-0.1250 0.6250 0.1250 (  1840 PWs)   bands (ev):

    -8.3694  -8.3504  -8.3169  -8.3129  -7.9369  -7.9060  -7.8545  -7.8537
    -7.8456  -7.8414  -4.5312  -4.5285   1.4302   1.4516   4.2608   4.3045
     4.6904   4.6998   8.8038   8.8136   9.9983  10.0270  13.1092  13.1231
    13.8874  13.8901

          k = 0.6250-0.1250 0.8750 (  1832 PWs)   bands (ev):

    -8.3875  -8.3483  -8.3139  -8.3030  -7.9618  -7.8881  -7.8616  -7.8556
    -7.8403  -7.8347  -3.6169  -3.6163   0.1577   0.2071   3.0215   3.0866
     4.0450   4.0735   9.6713   9.7044  11.3454  11.4295  12.5627  12.6241
    14.5218  14.5449

          k = 0.3750 0.1250 0.6250 (  1827 PWs)   bands (ev):

    -8.3743  -8.3464  -8.3211  -8.3085  -7.9484  -7.8906  -7.8713  -7.8602
    -7.8390  -7.8358  -4.2549  -4.2509   0.8013   0.8371   3.6311   3.6900
     4.9534   4.9855   9.7337   9.7981  10.8736  10.9038  12.1889  12.2531
    13.5796  13.6325

          k =-0.6250-0.3750-0.3750 (  1836 PWs)   bands (ev):

    -8.3705  -8.3417  -8.3219  -8.3210  -7.9394  -7.8911  -7.8787  -7.8671
    -7.8350  -7.8340  -4.1717  -4.1690   0.2271   0.2456   4.4784   4.5176
     5.2624   5.2666   8.7319   8.7621  11.0260  11.0339  11.9974  11.9983
    14.4245  14.4420

          k =-0.8750-0.1250-0.6250 (  1832 PWs)   bands (ev):

    -8.3875  -8.3483  -8.3139  -8.3030  -7.9618  -7.8881  -7.8616  -7.8556
    -7.8403  -7.8347  -3.6169  -3.6163   0.1577   0.2071   3.0215   3.0866
     4.0450   4.0735   9.6713   9.7044  11.3454  11.4295  12.5627  12.6241
    14.5218  14.5449

          k =-0.1250-0.8750 0.1250 (  1815 PWs)   bands (ev):

    -8.3812  -8.3567  -8.3118  -8.3081  -7.9451  -7.9062  -7.8542  -7.8498
    -7.8429  -7.8330  -3.6700  -3.6695   0.1558   0.1808   3.5772   3.6160
     4.2058   4.2114   8.3977   8.4002   9.3454   9.3756  15.1464  15.1693
    15.6686  15.6689

          k =-0.3750-0.6250-0.1250 (  1827 PWs)   bands (ev):

    -8.3743  -8.3464  -8.3211  -8.3085  -7.9484  -7.8906  -7.8713  -7.8602
    -7.8390  -7.8358  -4.2549  -4.2509   0.8013   0.8371   3.6311   3.6900
     4.9534   4.9855   9.7337   9.7981  10.8736  10.9038  12.1889  12.2531
    13.5796  13.6325

          k =-0.3750-0.1250-0.1250 (  1840 PWs)   bands (ev):

    -8.3495  -8.3380  -8.3256  -8.3238  -7.9205  -7.9046  -7.8623  -7.8593
    -7.8473  -7.8441  -5.3487  -5.3467   3.0555   3.0718   5.4427   5.4912
     5.6137   5.6279   9.1829   9.2377  10.1131  10.1337  12.1128  12.1231
    12.2189  12.2376

          k =-0.6250 0.1250-0.3750 (  1827 PWs)   bands (ev):

    -8.3743  -8.3464  -8.3211  -8.3085  -7.9484  -7.8906  -7.8713  -7.8602
    -7.8390  -7.8358  -4.2549  -4.2509   0.8013   0.8371   3.6311   3.6900
     4.9534   4.9855   9.7337   9.7981  10.8736  10.9038  12.1889  12.2531
    13.5796  13.6325

          k = 0.1250-0.6250 0.3750 (  1827 PWs)   bands (ev):

    -8.3743  -8.3464  -8.3211  -8.3085  -7.9484  -7.8906  -7.8713  -7.8602
    -7.8390  -7.8358  -4.2549  -4.2509   0.8013   0.8371   3.6311   3.6900
     4.9534   4.9855   9.7337   9.7981  10.8736  10.9038  12.1889  12.2531
    13.5796  13.6325

          k =-0.1250-0.3750 0.1250 (  1840 PWs)   bands (ev):

    -8.3495  -8.3380  -8.3256  -8.3238  -7.9205  -7.9046  -7.8623  -7.8593
    -7.8473  -7.8441  -5.3487  -5.3467   3.0555   3.0718   5.4427   5.4912
     5.6137   5.6279   9.1829   9.2377  10.1131  10.1337  12.1128  12.1231
    12.2189  12.2376

          k =-0.3750-0.1250 0.3750 (  1842 PWs)   bands (ev):

    -8.3594  -8.3405  -8.3236  -8.3206  -7.9314  -7.8980  -7.8700  -7.8622
    -7.8438  -7.8384  -4.9443  -4.9405   1.8562   1.8796   4.5706   4.6180
     5.9832   5.9835   8.9641   9.0094  11.3880  11.4027  11.4726  11.4829
    12.8118  12.8271

          k =-0.6250 0.1250 0.1250 (  1840 PWs)   bands (ev):

    -8.3694  -8.3504  -8.3169  -8.3129  -7.9369  -7.9060  -7.8545  -7.8537
    -7.8456  -7.8414  -4.5312  -4.5285   1.4302   1.4516   4.2608   4.3045
     4.6904   4.6998   8.8038   8.8136   9.9983  10.0270  13.1092  13.1231
    13.8874  13.8901

          k = 0.1250-0.6250 0.8750 (  1832 PWs)   bands (ev):

    -8.3875  -8.3483  -8.3139  -8.3030  -7.9618  -7.8881  -7.8616  -7.8556
    -7.8403  -7.8347  -3.6169  -3.6163   0.1577   0.2071   3.0215   3.0866
     4.0450   4.0735   9.6713   9.7044  11.3454  11.4295  12.5627  12.6241
    14.5218  14.5449

          k =-0.1250-0.3750 0.6250 (  1827 PWs)   bands (ev):

    -8.3743  -8.3464  -8.3211  -8.3085  -7.9484  -7.8906  -7.8713  -7.8602
    -7.8390  -7.8358  -4.2549  -4.2509   0.8013   0.8371   3.6311   3.6900
     4.9534   4.9855   9.7337   9.7981  10.8736  10.9038  12.1889  12.2531
    13.5796  13.6325

          k =-0.1250 0.1250 0.6250 (  1840 PWs)   bands (ev):

    -8.3694  -8.3504  -8.3169  -8.3129  -7.9369  -7.9060  -7.8545  -7.8537
    -7.8456  -7.8414  -4.5312  -4.5285   1.4302   1.4516   4.2608   4.3045
     4.6904   4.6998   8.8038   8.8136   9.9983  10.0270  13.1092  13.1231
    13.8874  13.8901

          k =-0.3750 0.3750 0.3750 (  1844 PWs)   bands (ev):

    -8.3531  -8.3531  -8.3251  -8.3209  -7.9158  -7.9158  -7.8686  -7.8686
    -7.8397  -7.8350  -4.6287  -4.6287   0.8320   0.8320   5.5806   5.5806
     5.7862   5.7885   7.7882   7.7882  11.3256  11.3256  11.4284  11.4300
    14.3504  14.3504

          k = 0.3750-0.3750 1.1250 (  1822 PWs)   bands (ev):

    -8.3845  -8.3454  -8.3148  -8.3070  -7.9582  -7.8862  -7.8694  -7.8573
    -7.8393  -7.8354  -3.8689  -3.8662   0.2960   0.3423   3.0323   3.0913
     4.9655   4.9662   9.0850   9.1017  12.0894  12.1693  13.1334  13.1366
    14.0346  14.0579

          k = 0.1250-0.1250 0.8750 (  1815 PWs)   bands (ev):

    -8.3812  -8.3567  -8.3118  -8.3081  -7.9451  -7.9062  -7.8542  -7.8498
    -7.8429  -7.8330  -3.6700  -3.6695   0.1558   0.1808   3.5772   3.6160
     4.2058   4.2114   8.3977   8.4002   9.3454   9.3756  15.1464  15.1693
    15.6686  15.6689

          k =-0.8750-0.6250-0.1250 (  1832 PWs)   bands (ev):

    -8.3875  -8.3483  -8.3139  -8.3030  -7.9618  -7.8881  -7.8616  -7.8556
    -7.8403  -7.8347  -3.6169  -3.6163   0.1577   0.2071   3.0215   3.0866
     4.0450   4.0735   9.6713   9.7044  11.3454  11.4295  12.5627  12.6241
    14.5218  14.5449

          k =-1.1250-0.3750-0.3750 (  1822 PWs)   bands (ev):

    -8.3845  -8.3454  -8.3148  -8.3070  -7.9582  -7.8862  -7.8694  -7.8573
    -7.8393  -7.8354  -3.8689  -3.8662   0.2960   0.3423   3.0323   3.0913
     4.9655   4.9662   9.0850   9.1017  12.0894  12.1693  13.1334  13.1366
    14.0346  14.0579

          k =-0.3750-1.1250 0.3750 (  1822 PWs)   bands (ev):

    -8.3845  -8.3454  -8.3148  -8.3070  -7.9582  -7.8862  -7.8694  -7.8573
    -7.8393  -7.8354  -3.8689  -3.8662   0.2960   0.3423   3.0323   3.0913
     4.9655   4.9662   9.0850   9.1017  12.0894  12.1693  13.1334  13.1366
    14.0346  14.0579

          k =-0.6250-0.8750 0.1250 (  1832 PWs)   bands (ev):

    -8.3875  -8.3483  -8.3139  -8.3030  -7.9618  -7.8881  -7.8616  -7.8556
    -7.8403  -7.8347  -3.6169  -3.6163   0.1577   0.2071   3.0215   3.0866
     4.0450   4.0735   9.6713   9.7044  11.3454  11.4295  12.5627  12.6241
    14.5218  14.5449

          k =-0.6250-0.3750 0.1250 (  1827 PWs)   bands (ev):

    -8.3743  -8.3464  -8.3211  -8.3085  -7.9484  -7.8906  -7.8713  -7.8602
    -7.8390  -7.8358  -4.2549  -4.2509   0.8013   0.8371   3.6311   3.6900
     4.9534   4.9855   9.7337   9.7981  10.8736  10.9038  12.1889  12.2531
    13.5796  13.6325

          k =-0.8750-0.1250-0.1250 (  1815 PWs)   bands (ev):

    -8.3812  -8.3567  -8.3118  -8.3081  -7.9451  -7.9062  -7.8542  -7.8498
    -7.8429  -7.8330  -3.6700  -3.6695   0.1558   0.1808   3.5772   3.6160
     4.2058   4.2114   8.3977   8.4002   9.3454   9.3756  15.1464  15.1693
    15.6686  15.6689

          k =-0.1250-0.8750 0.6250 (  1832 PWs)   bands (ev):

    -8.3875  -8.3483  -8.3139  -8.3030  -7.9618  -7.8881  -7.8616  -7.8556
    -7.8403  -7.8347  -3.6169  -3.6163   0.1577   0.2071   3.0215   3.0866
     4.0450   4.0735   9.6713   9.7044  11.3454  11.4295  12.5627  12.6241
    14.5218  14.5449

          k =-0.3750-0.6250 0.3750 (  1836 PWs)   bands (ev):

    -8.3705  -8.3417  -8.3219  -8.3210  -7.9394  -7.8911  -7.8787  -7.8671
    -7.8350  -7.8340  -4.1717  -4.1690   0.2271   0.2456   4.4784   4.5176
     5.2624   5.2666   8.7319   8.7621  11.0260  11.0339  11.9974  11.9983
    14.4245  14.4420

     the Fermi energy is     6.7157 ev

!    total energy              =    -191.00427891 Ry
     estimated scf accuracy    <          6.6E-10 Ry
     smearing contrib. (-TS)   =      -0.00000000 Ry
     internal energy E=F+TS    =    -191.00427891 Ry

     The total energy is F=E-TS. E is the sum of the following terms:
     one-electron contribution =    -112.09903770 Ry
     hartree contribution      =      71.80606618 Ry
     xc contribution           =     -57.90473375 Ry
     ewald contribution        =     -92.80657363 Ry

     convergence has been achieved in  10 iterations

     Writing all to output data dir ./GaAs.save/

     init_run     :      8.18s CPU      2.67s WALL (       1 calls)
     electrons    :    255.42s CPU     60.03s WALL (       1 calls)

     Called by init_run:
     wfcinit      :      6.93s CPU      1.83s WALL (       1 calls)
     potinit      :      0.04s CPU      0.05s WALL (       1 calls)
     hinit0       :      0.61s CPU      0.61s WALL (       1 calls)

     Called by electrons:
     c_bands      :    198.83s CPU     46.41s WALL (      11 calls)
     sum_band     :     48.12s CPU     11.11s WALL (      11 calls)
     v_of_rho     :      1.28s CPU      0.46s WALL (      11 calls)
     newd         :      6.80s CPU      1.92s WALL (      11 calls)
     mix_rho      :      0.56s CPU      0.18s WALL (      11 calls)

     Called by c_bands:
     init_us_2    :      2.51s CPU      0.41s WALL (     736 calls)
     init_us_2:cp :      2.51s CPU      0.41s WALL (     736 calls)
     cegterg      :    182.81s CPU     43.99s WALL (     352 calls)

     Called by *egterg:
     cdiaghg      :      4.72s CPU      0.70s WALL (    1026 calls)
     h_psi        :    155.98s CPU     40.57s WALL (    1090 calls)
     s_psi        :      3.21s CPU      0.68s WALL (    1090 calls)
     g_psi        :      0.73s CPU      0.13s WALL (     706 calls)

     Called by h_psi:
     h_psi:calbec :      3.82s CPU      1.01s WALL (    1090 calls)
     vloc_psi     :    148.97s CPU     38.75s WALL (    1090 calls)
     add_vuspsi   :      2.49s CPU      0.66s WALL (    1090 calls)

     General routines
     calbec       :      4.80s CPU      1.33s WALL (    1442 calls)
     fft          :      1.50s CPU      0.48s WALL (     265 calls)
     ffts         :      0.19s CPU      0.06s WALL (      88 calls)
     fftw         :    145.11s CPU     36.90s WALL (  106392 calls)
     interpolate  :      0.38s CPU      0.13s WALL (      44 calls)


     PWSCF        :   4m24.73s CPU   1m 3.09s WALL


   This run was terminated on:  16:36: 9  12May2024            

=------------------------------------------------------------------------------=
   JOB DONE.
=------------------------------------------------------------------------------=
