
     Program PWSCF v.7.2 starts on 12May2024 at 16:34:36 

     This program is part of the open-source Quantum ESPRESSO suite
     for quantum simulation of materials; please cite
         "P. Giannozzi et al., J. Phys.:Condens. Matter 21 395502 (2009);
         "P. Giannozzi et al., J. Phys.:Condens. Matter 29 465901 (2017);
         "P. Giannozzi et al., J. Chem. Phys. 152 154105 (2020);
          URL http://www.quantum-espresso.org", 
     in publications or presentations arising from this work. More details at
     http://www.quantum-espresso.org/quote

     Serial version
     0 MiB available memory on the printing compute node when the environment starts

     Waiting for input...
     Reading input from standard input
Warning: card   2 2 2 0 0 0 ignored

     Current dimensions of program PWSCF are:
     Max number of different atomic species (ntypx) = 10
     Max number of k-points (npk) =  40000
     Max angular momentum in pseudopotentials (lmaxx) =  4
     file Ga.rel-pbe-dn-rrkjus_psl.0.2.UPF: wavefunction(s)  4S 3D 3D renormalized


     G-vector sticks info
     --------------------
     sticks:   dense  smooth     PW     G-vecs:    dense   smooth      PW
     Sum        1573     793    241                41391    14649    2421

     Using Slab Decomposition



     bravais-lattice index     =            2
     lattice parameter (alat)  =      10.7074  a.u.
     unit-cell volume          =     306.8946 (a.u.)^3
     number of atoms/cell      =            2
     number of atomic types    =            2
     number of electrons       =        18.00
     number of Kohn-Sham states=           26
     kinetic-energy cutoff     =      50.0000  Ry
     charge density cutoff     =     400.0000  Ry
     scf convergence threshold =      1.0E-08
     mixing beta               =       0.3000
     number of iterations used =            8  plain     mixing
     Exchange-correlation= PBE
                           (   1   4   3   4   0   0   0)
     Non magnetic calculation with spin-orbit


     celldm(1)=  10.707376  celldm(2)=   0.000000  celldm(3)=   0.000000
     celldm(4)=   0.000000  celldm(5)=   0.000000  celldm(6)=   0.000000

     crystal axes: (cart. coord. in units of alat)
               a(1) = (  -0.500000   0.000000   0.500000 )  
               a(2) = (   0.000000   0.500000   0.500000 )  
               a(3) = (  -0.500000   0.500000   0.000000 )  

     reciprocal axes: (cart. coord. in units 2 pi/alat)
               b(1) = ( -1.000000 -1.000000  1.000000 )  
               b(2) = (  1.000000  1.000000  1.000000 )  
               b(3) = ( -1.000000  1.000000 -1.000000 )  


     PseudoPot. # 1 for As read from file:
     ../pseudopotential/As.rel-pbe-n-rrkjus_psl.0.2.UPF
     MD5 check sum: fd1d9cb43fef956eb1cdd0c60ce90062
     Pseudo is Ultrasoft + core correction, Zval =  5.0
     Generated using "atomic" code by A. Dal Corso  v.5.0.2 svn rev. 9415
     Using radial grid of 1209 points,  6 beta functions with: 
                l(1) =   0
                l(2) =   0
                l(3) =   1
                l(4) =   1
                l(5) =   1
                l(6) =   1
     Q(r) pseudized with 0 coefficients 


     PseudoPot. # 2 for Ga read from file:
     ../pseudopotential/Ga.rel-pbe-dn-rrkjus_psl.0.2.UPF
     MD5 check sum: b82f27152fdba9c8aaf7d704465ad383
     Pseudo is Ultrasoft + core correction, Zval = 13.0
     Generated using "atomic" code by A. Dal Corso  v.5.0.2 svn rev. 9415
     Using radial grid of 1205 points, 10 beta functions with: 
                l(1) =   0
                l(2) =   0
                l(3) =   1
                l(4) =   1
                l(5) =   1
                l(6) =   1
                l(7) =   2
                l(8) =   2
                l(9) =   2
               l(10) =   2
     Q(r) pseudized with 0 coefficients 


     atomic species   valence    mass     pseudopotential
        As             5.00    74.92160     As( 1.00)
        Ga            13.00    69.72000     Ga( 1.00)

     No symmetry found



   Cartesian axes

     site n.     atom                  positions (alat units)
         1           Ga  tau(   1) = (   0.0000000   0.0000000   0.0000000  )
         2           As  tau(   2) = (   0.2500000   0.2500000   0.2500000  )

     number of k points=    14  Gaussian smearing, width (Ry)=  0.0020
                       cart. coord. in units 2pi/alat
        k(    1) = (  -0.1666667   0.1666667   0.1666667), wk =   0.0740741
        k(    2) = (   0.5000000  -0.5000000   0.8333333), wk =   0.0740741
        k(    3) = (   0.1666667  -0.1666667   0.5000000), wk =   0.0740741
        k(    4) = (  -0.8333333  -0.5000000  -0.5000000), wk =   0.0740741
        k(    5) = (  -0.1666667  -1.1666667   0.1666667), wk =   0.0740741
        k(    6) = (  -0.5000000  -0.8333333  -0.1666667), wk =   0.0740741
        k(    7) = (  -0.5000000  -0.1666667  -0.1666667), wk =   0.0740741
        k(    8) = (   0.1666667  -0.8333333   0.5000000), wk =   0.0740741
        k(    9) = (  -0.1666667  -0.5000000   0.1666667), wk =   0.0740741
        k(   10) = (   0.5000000   0.8333333  -0.5000000), wk =   0.0740741
        k(   11) = (   1.1666667   0.1666667   0.1666667), wk =   0.0740741
        k(   12) = (   0.8333333   0.5000000  -0.1666667), wk =   0.0740741
        k(   13) = (  -0.1666667   0.1666667  -1.1666667), wk =   0.0740741
        k(   14) = (   0.5000000  -0.5000000  -0.5000000), wk =   0.0370370

     Dense  grid:    41391 G-vectors     FFT dimensions: (  50,  50,  50)

     Smooth grid:    14649 G-vectors     FFT dimensions: (  36,  36,  36)

     Estimated max dynamical RAM per process >     496.50 MB

     Initial potential from superposition of free atoms

     starting charge      17.9971, renormalised to      18.0000
     Starting wfcs are   26 randomized atomic wfcs

     total cpu time spent up to now is        2.1 secs

     Self-consistent Calculation

     iteration #  1     ecut=    50.00 Ry     beta= 0.30
     Davidson diagonalization with overlap
     ethr =  1.00E-02,  avg # of iterations =  4.4

     Threshold (ethr) on eigenvalues was too large:
     Diagonalizing with lowered threshold

     Davidson diagonalization with overlap
     ethr =  2.66E-04,  avg # of iterations =  2.0

     total cpu time spent up to now is        8.0 secs

     total energy              =    -191.00192678 Ry
     estimated scf accuracy    <       0.04774343 Ry

     iteration #  2     ecut=    50.00 Ry     beta= 0.30
     Davidson diagonalization with overlap
     ethr =  2.65E-04,  avg # of iterations =  1.0

     total cpu time spent up to now is       10.5 secs

     total energy              =    -191.00212077 Ry
     estimated scf accuracy    <       0.01364496 Ry

     iteration #  3     ecut=    50.00 Ry     beta= 0.30
     Davidson diagonalization with overlap
     ethr =  7.58E-05,  avg # of iterations =  1.1

     total cpu time spent up to now is       12.9 secs

     total energy              =    -191.00284735 Ry
     estimated scf accuracy    <       0.00234558 Ry

     iteration #  4     ecut=    50.00 Ry     beta= 0.30
     Davidson diagonalization with overlap
     ethr =  1.30E-05,  avg # of iterations =  1.5

     total cpu time spent up to now is       15.3 secs

     total energy              =    -191.00295778 Ry
     estimated scf accuracy    <       0.00005569 Ry

     iteration #  5     ecut=    50.00 Ry     beta= 0.30
     Davidson diagonalization with overlap
     ethr =  3.09E-07,  avg # of iterations =  3.1

     total cpu time spent up to now is       18.4 secs

     total energy              =    -191.00298170 Ry
     estimated scf accuracy    <       0.00001923 Ry

     iteration #  6     ecut=    50.00 Ry     beta= 0.30
     Davidson diagonalization with overlap
     ethr =  1.07E-07,  avg # of iterations =  1.0

     total cpu time spent up to now is       20.9 secs

     total energy              =    -191.00298025 Ry
     estimated scf accuracy    <       0.00000477 Ry

     iteration #  7     ecut=    50.00 Ry     beta= 0.30
     Davidson diagonalization with overlap
     ethr =  2.65E-08,  avg # of iterations =  2.0

     total cpu time spent up to now is       23.8 secs

     total energy              =    -191.00298172 Ry
     estimated scf accuracy    <       0.00000032 Ry

     iteration #  8     ecut=    50.00 Ry     beta= 0.30
     Davidson diagonalization with overlap
     ethr =  1.77E-09,  avg # of iterations =  1.0

     total cpu time spent up to now is       27.1 secs

     total energy              =    -191.00298167 Ry
     estimated scf accuracy    <       0.00000009 Ry

     iteration #  9     ecut=    50.00 Ry     beta= 0.30
     Davidson diagonalization with overlap
     ethr =  5.09E-10,  avg # of iterations =  2.0

     total cpu time spent up to now is       29.8 secs

     End of self-consistent calculation

          k =-0.1667 0.1667 0.1667 (  1844 PWs)   bands (ev):

    -8.3458  -8.3458  -8.3274  -8.3221  -7.9135  -7.9135  -7.8575  -7.8575
    -7.8554  -7.8496  -5.6636  -5.6636   3.9940   3.9940   6.2187   6.2187
     6.4303   6.4337   8.2811   8.2811  10.9089  10.9089  11.0436  11.0456
    11.3818  11.3818

          k = 0.5000-0.5000 0.8333 (  1837 PWs)   bands (ev):

    -8.3772  -8.3430  -8.3218  -8.3193  -7.9483  -7.8923  -7.8771  -7.8658
    -7.8424  -7.8362  -4.3314  -4.3274   0.7318   0.7612   3.8525   3.9007
     5.5103   5.5107   9.1303   9.1668  11.4253  11.4295  12.0211  12.0218
    13.8286  13.8379

          k = 0.1667-0.1667 0.5000 (  1843 PWs)   bands (ev):

    -8.3650  -8.3421  -8.3243  -8.3237  -7.9348  -7.9035  -7.8685  -7.8642
    -7.8435  -7.8432  -4.8944  -4.8914   1.9535   1.9740   4.8146   4.8653
     5.1507   5.1637   9.1678   9.1964  10.4693  10.4944  12.3349  12.3611
    12.7762  12.7775

          k =-0.8333-0.5000-0.5000 (  1837 PWs)   bands (ev):

    -8.3772  -8.3430  -8.3218  -8.3193  -7.9483  -7.8923  -7.8771  -7.8658
    -7.8424  -7.8362  -4.3314  -4.3274   0.7318   0.7612   3.8525   3.9007
     5.5103   5.5107   9.1303   9.1668  11.4253  11.4295  12.0211  12.0218
    13.8286  13.8379

          k =-0.1667-1.1667 0.1667 (  1823 PWs)   bands (ev):

    -8.3870  -8.3555  -8.3135  -8.3103  -7.9533  -7.9041  -7.8558  -7.8526
    -7.8478  -7.8366  -3.7592  -3.7580   0.3010   0.3327   3.4169   3.4621
     4.3385   4.3427   8.5497   8.5503  10.0097  10.0481  14.3183  14.3194
    15.0039  15.0049

          k =-0.5000-0.8333-0.1667 (  1828 PWs)   bands (ev):

    -8.3872  -8.3512  -8.3227  -8.3011  -7.9636  -7.8849  -7.8763  -7.8611
    -7.8421  -7.8329  -3.6912  -3.6899   0.1943   0.2441   3.0354   3.1020
     4.2430   4.2742  10.2551  10.3429  11.0350  11.0847  12.8219  12.9370
    14.0742  14.1616

          k =-0.5000-0.1667-0.1667 (  1843 PWs)   bands (ev):

    -8.3650  -8.3421  -8.3243  -8.3237  -7.9348  -7.9035  -7.8685  -7.8642
    -7.8435  -7.8432  -4.8944  -4.8914   1.9535   1.9740   4.8146   4.8653
     5.1507   5.1637   9.1678   9.1964  10.4693  10.4944  12.3349  12.3611
    12.7762  12.7775

          k = 0.1667-0.8333 0.5000 (  1828 PWs)   bands (ev):

    -8.3872  -8.3512  -8.3227  -8.3011  -7.9636  -7.8849  -7.8763  -7.8611
    -7.8421  -7.8329  -3.6912  -3.6899   0.1943   0.2441   3.0354   3.1020
     4.2430   4.2742  10.2551  10.3429  11.0350  11.0847  12.8219  12.9370
    14.0742  14.1616

          k =-0.1667-0.5000 0.1667 (  1843 PWs)   bands (ev):

    -8.3650  -8.3421  -8.3243  -8.3237  -7.9348  -7.9035  -7.8685  -7.8642
    -7.8435  -7.8432  -4.8944  -4.8914   1.9535   1.9740   4.8146   4.8653
     5.1507   5.1637   9.1678   9.1964  10.4693  10.4944  12.3349  12.3611
    12.7762  12.7775

          k = 0.5000 0.8333-0.5000 (  1837 PWs)   bands (ev):

    -8.3772  -8.3430  -8.3218  -8.3193  -7.9483  -7.8923  -7.8771  -7.8658
    -7.8424  -7.8362  -4.3314  -4.3274   0.7318   0.7612   3.8525   3.9007
     5.5103   5.5107   9.1303   9.1668  11.4253  11.4295  12.0211  12.0218
    13.8286  13.8379

          k = 1.1667 0.1667 0.1667 (  1823 PWs)   bands (ev):

    -8.3870  -8.3555  -8.3135  -8.3103  -7.9533  -7.9041  -7.8558  -7.8526
    -7.8478  -7.8366  -3.7592  -3.7580   0.3010   0.3327   3.4169   3.4621
     4.3385   4.3427   8.5497   8.5503  10.0097  10.0481  14.3183  14.3194
    15.0039  15.0049

          k = 0.8333 0.5000-0.1667 (  1828 PWs)   bands (ev):

    -8.3872  -8.3512  -8.3227  -8.3011  -7.9636  -7.8849  -7.8763  -7.8611
    -7.8421  -7.8329  -3.6912  -3.6899   0.1943   0.2441   3.0354   3.1020
     4.2430   4.2742  10.2551  10.3429  11.0350  11.0847  12.8219  12.9370
    14.0742  14.1616

          k =-0.1667 0.1667-1.1667 (  1823 PWs)   bands (ev):

    -8.3870  -8.3555  -8.3135  -8.3103  -7.9533  -7.9041  -7.8558  -7.8526
    -7.8478  -7.8366  -3.7592  -3.7580   0.3010   0.3327   3.4169   3.4621
     4.3385   4.3427   8.5497   8.5503  10.0097  10.0481  14.3183  14.3194
    15.0039  15.0049

          k = 0.5000-0.5000-0.5000 (  1850 PWs)   bands (ev):

    -8.3631  -8.3631  -8.3212  -8.3212  -7.9220  -7.9220  -7.8687  -7.8687
    -7.8383  -7.8383  -4.2423  -4.2423   0.1007   0.1007   5.4667   5.4667
     5.6724   5.6724   7.6498   7.6498  11.2813  11.2813  11.3736  11.3736
    14.5174  14.5174

     the Fermi energy is     7.0489 ev

!    total energy              =    -191.00298170 Ry
     estimated scf accuracy    <          7.0E-09 Ry
     smearing contrib. (-TS)   =      -0.00000000 Ry
     internal energy E=F+TS    =    -191.00298170 Ry

     The total energy is F=E-TS. E is the sum of the following terms:
     one-electron contribution =    -112.09909301 Ry
     hartree contribution      =      71.80953102 Ry
     xc contribution           =     -57.90684608 Ry
     ewald contribution        =     -92.80657363 Ry

     convergence has been achieved in   9 iterations

     Writing all to output data dir ./GaAs.save/

     init_run     :      6.87s CPU      1.82s WALL (       1 calls)
     electrons    :    121.48s CPU     27.70s WALL (       1 calls)

     Called by init_run:
     wfcinit      :      5.05s CPU      0.89s WALL (       1 calls)
     potinit      :      0.04s CPU      0.05s WALL (       1 calls)
     hinit0       :      0.61s CPU      0.61s WALL (       1 calls)

     Called by electrons:
     c_bands      :     88.29s CPU     19.77s WALL (      10 calls)
     sum_band     :     24.86s CPU      5.67s WALL (      10 calls)
     v_of_rho     :      1.19s CPU      0.43s WALL (      10 calls)
     newd         :      7.28s CPU      1.81s WALL (      10 calls)
     mix_rho      :      0.67s CPU      0.19s WALL (      10 calls)

     Called by c_bands:
     init_us_2    :      0.90s CPU      0.16s WALL (     294 calls)
     init_us_2:cp :      0.90s CPU      0.16s WALL (     294 calls)
     cegterg      :     81.99s CPU     18.79s WALL (     140 calls)

     Called by *egterg:
     cdiaghg      :      2.03s CPU      0.30s WALL (     393 calls)
     h_psi        :     68.27s CPU     16.77s WALL (     421 calls)
     s_psi        :      1.87s CPU      0.34s WALL (     421 calls)
     g_psi        :      0.23s CPU      0.05s WALL (     267 calls)

     Called by h_psi:
     h_psi:calbec :      3.40s CPU      0.77s WALL (     421 calls)
     vloc_psi     :     63.22s CPU     15.62s WALL (     421 calls)
     add_vuspsi   :      1.35s CPU      0.32s WALL (     421 calls)

     General routines
     calbec       :      3.84s CPU      0.90s WALL (     561 calls)
     fft          :      1.49s CPU      0.47s WALL (     240 calls)
     ffts         :      0.26s CPU      0.05s WALL (      80 calls)
     fftw         :     62.00s CPU     14.84s WALL (   42168 calls)
     interpolate  :      0.31s CPU      0.11s WALL (      40 calls)


     PWSCF        :   2m 9.80s CPU     29.88s WALL


   This run was terminated on:  16:35: 6  12May2024            

=------------------------------------------------------------------------------=
   JOB DONE.
=------------------------------------------------------------------------------=
