
     Program PWSCF v.7.2 starts on 12May2024 at 16:34:24 

     This program is part of the open-source Quantum ESPRESSO suite
     for quantum simulation of materials; please cite
         "P. Giannozzi et al., J. Phys.:Condens. Matter 21 395502 (2009);
         "P. Giannozzi et al., J. Phys.:Condens. Matter 29 465901 (2017);
         "P. Giannozzi et al., J. Chem. Phys. 152 154105 (2020);
          URL http://www.quantum-espresso.org", 
     in publications or presentations arising from this work. More details at
     http://www.quantum-espresso.org/quote

     Serial version
     0 MiB available memory on the printing compute node when the environment starts

     Waiting for input...
     Reading input from standard input
Warning: card   2 2 2 0 0 0 ignored

     Current dimensions of program PWSCF are:
     Max number of different atomic species (ntypx) = 10
     Max number of k-points (npk) =  40000
     Max angular momentum in pseudopotentials (lmaxx) =  4
     file Ga.rel-pbe-dn-rrkjus_psl.0.2.UPF: wavefunction(s)  4S 3D 3D renormalized


     G-vector sticks info
     --------------------
     sticks:   dense  smooth     PW     G-vecs:    dense   smooth      PW
     Sum        1573     793    223                41391    14649    2229

     Using Slab Decomposition



     bravais-lattice index     =            2
     lattice parameter (alat)  =      10.7074  a.u.
     unit-cell volume          =     306.8946 (a.u.)^3
     number of atoms/cell      =            2
     number of atomic types    =            2
     number of electrons       =        18.00
     number of Kohn-Sham states=           26
     kinetic-energy cutoff     =      50.0000  Ry
     charge density cutoff     =     400.0000  Ry
     scf convergence threshold =      1.0E-08
     mixing beta               =       0.3000
     number of iterations used =            8  plain     mixing
     Exchange-correlation= PBE
                           (   1   4   3   4   0   0   0)
     Non magnetic calculation with spin-orbit


     celldm(1)=  10.707376  celldm(2)=   0.000000  celldm(3)=   0.000000
     celldm(4)=   0.000000  celldm(5)=   0.000000  celldm(6)=   0.000000

     crystal axes: (cart. coord. in units of alat)
               a(1) = (  -0.500000   0.000000   0.500000 )  
               a(2) = (   0.000000   0.500000   0.500000 )  
               a(3) = (  -0.500000   0.500000   0.000000 )  

     reciprocal axes: (cart. coord. in units 2 pi/alat)
               b(1) = ( -1.000000 -1.000000  1.000000 )  
               b(2) = (  1.000000  1.000000  1.000000 )  
               b(3) = ( -1.000000  1.000000 -1.000000 )  


     PseudoPot. # 1 for As read from file:
     ../pseudopotential/As.rel-pbe-n-rrkjus_psl.0.2.UPF
     MD5 check sum: fd1d9cb43fef956eb1cdd0c60ce90062
     Pseudo is Ultrasoft + core correction, Zval =  5.0
     Generated using "atomic" code by A. Dal Corso  v.5.0.2 svn rev. 9415
     Using radial grid of 1209 points,  6 beta functions with: 
                l(1) =   0
                l(2) =   0
                l(3) =   1
                l(4) =   1
                l(5) =   1
                l(6) =   1
     Q(r) pseudized with 0 coefficients 


     PseudoPot. # 2 for Ga read from file:
     ../pseudopotential/Ga.rel-pbe-dn-rrkjus_psl.0.2.UPF
     MD5 check sum: b82f27152fdba9c8aaf7d704465ad383
     Pseudo is Ultrasoft + core correction, Zval = 13.0
     Generated using "atomic" code by A. Dal Corso  v.5.0.2 svn rev. 9415
     Using radial grid of 1205 points, 10 beta functions with: 
                l(1) =   0
                l(2) =   0
                l(3) =   1
                l(4) =   1
                l(5) =   1
                l(6) =   1
                l(7) =   2
                l(8) =   2
                l(9) =   2
               l(10) =   2
     Q(r) pseudized with 0 coefficients 


     atomic species   valence    mass     pseudopotential
        As             5.00    74.92160     As( 1.00)
        Ga            13.00    69.72000     Ga( 1.00)

     No symmetry found



   Cartesian axes

     site n.     atom                  positions (alat units)
         1           Ga  tau(   1) = (   0.0000000   0.0000000   0.0000000  )
         2           As  tau(   2) = (   0.2500000   0.2500000   0.2500000  )

     number of k points=     4  Gaussian smearing, width (Ry)=  0.0020
                       cart. coord. in units 2pi/alat
        k(    1) = (  -0.2500000   0.2500000   0.2500000), wk =   0.2500000
        k(    2) = (   0.2500000  -0.2500000   0.7500000), wk =   0.2500000
        k(    3) = (  -0.7500000  -0.2500000  -0.2500000), wk =   0.2500000
        k(    4) = (  -0.2500000  -0.7500000   0.2500000), wk =   0.2500000

     Dense  grid:    41391 G-vectors     FFT dimensions: (  50,  50,  50)

     Smooth grid:    14649 G-vectors     FFT dimensions: (  36,  36,  36)

     Estimated max dynamical RAM per process >     481.96 MB

     Initial potential from superposition of free atoms

     starting charge      17.9971, renormalised to      18.0000
     Starting wfcs are   26 randomized atomic wfcs

     total cpu time spent up to now is        1.5 secs

     Self-consistent Calculation

     iteration #  1     ecut=    50.00 Ry     beta= 0.30
     Davidson diagonalization with overlap
     ethr =  1.00E-02,  avg # of iterations =  4.5

     Threshold (ethr) on eigenvalues was too large:
     Diagonalizing with lowered threshold

     Davidson diagonalization with overlap
     ethr =  3.15E-04,  avg # of iterations =  2.0

     total cpu time spent up to now is        3.6 secs

     total energy              =    -190.99083782 Ry
     estimated scf accuracy    <       0.05678519 Ry

     iteration #  2     ecut=    50.00 Ry     beta= 0.30
     Davidson diagonalization with overlap
     ethr =  3.15E-04,  avg # of iterations =  1.0

     total cpu time spent up to now is        4.7 secs

     total energy              =    -190.99072233 Ry
     estimated scf accuracy    <       0.01702418 Ry

     iteration #  3     ecut=    50.00 Ry     beta= 0.30
     Davidson diagonalization with overlap
     ethr =  9.46E-05,  avg # of iterations =  1.0

     total cpu time spent up to now is        5.7 secs

     total energy              =    -190.99174749 Ry
     estimated scf accuracy    <       0.00281459 Ry

     iteration #  4     ecut=    50.00 Ry     beta= 0.30
     Davidson diagonalization with overlap
     ethr =  1.56E-05,  avg # of iterations =  1.2

     total cpu time spent up to now is        6.7 secs

     total energy              =    -190.99190713 Ry
     estimated scf accuracy    <       0.00009035 Ry

     iteration #  5     ecut=    50.00 Ry     beta= 0.30
     Davidson diagonalization with overlap
     ethr =  5.02E-07,  avg # of iterations =  2.2

     total cpu time spent up to now is        7.9 secs

     total energy              =    -190.99194175 Ry
     estimated scf accuracy    <       0.00003399 Ry

     iteration #  6     ecut=    50.00 Ry     beta= 0.30
     Davidson diagonalization with overlap
     ethr =  1.89E-07,  avg # of iterations =  1.0

     total cpu time spent up to now is        8.9 secs

     total energy              =    -190.99193949 Ry
     estimated scf accuracy    <       0.00000739 Ry

     iteration #  7     ecut=    50.00 Ry     beta= 0.30
     Davidson diagonalization with overlap
     ethr =  4.11E-08,  avg # of iterations =  2.0

     total cpu time spent up to now is       10.0 secs

     total energy              =    -190.99194199 Ry
     estimated scf accuracy    <       0.00000133 Ry

     iteration #  8     ecut=    50.00 Ry     beta= 0.30
     Davidson diagonalization with overlap
     ethr =  7.39E-09,  avg # of iterations =  1.0

     total cpu time spent up to now is       11.0 secs

     total energy              =    -190.99194203 Ry
     estimated scf accuracy    <       0.00000015 Ry

     iteration #  9     ecut=    50.00 Ry     beta= 0.30
     Davidson diagonalization with overlap
     ethr =  8.52E-10,  avg # of iterations =  2.0

     total cpu time spent up to now is       12.1 secs

     End of self-consistent calculation

          k =-0.2500 0.2500 0.2500 (  1847 PWs)   bands (ev):

    -8.3633  -8.3633  -8.3209  -8.3149  -7.9261  -7.9261  -7.8572  -7.8557
    -7.8557  -7.8504  -5.2600  -5.2600   2.6423   2.6423   5.9588   5.9588
     6.1658   6.1693   8.0679   8.0679  11.2466  11.2466  11.3740  11.3769
    12.7161  12.7161

          k = 0.2500-0.2500 0.7500 (  1829 PWs)   bands (ev):

    -8.3917  -8.3465  -8.3216  -8.3160  -7.9605  -7.8987  -7.8734  -7.8680
    -7.8423  -7.8331  -3.9006  -3.8985   0.4347   0.4701   3.5122   3.5624
     4.7038   4.7070   8.8977   8.9063  11.4094  11.4929  12.9367  12.9943
    13.6978  13.6998

          k =-0.7500-0.2500-0.2500 (  1829 PWs)   bands (ev):

    -8.3917  -8.3465  -8.3216  -8.3160  -7.9605  -7.8987  -7.8734  -7.8680
    -7.8423  -7.8331  -3.9006  -3.8985   0.4347   0.4701   3.5122   3.5624
     4.7038   4.7070   8.8977   8.9063  11.4094  11.4929  12.9367  12.9943
    13.6978  13.6998

          k =-0.2500-0.7500 0.2500 (  1829 PWs)   bands (ev):

    -8.3917  -8.3465  -8.3216  -8.3160  -7.9605  -7.8987  -7.8734  -7.8680
    -7.8423  -7.8331  -3.9006  -3.8985   0.4347   0.4701   3.5122   3.5624
     4.7038   4.7070   8.8977   8.9063  11.4094  11.4929  12.9367  12.9943
    13.6978  13.6998

     the Fermi energy is     6.8982 ev

!    total energy              =    -190.99194208 Ry
     estimated scf accuracy    <          6.4E-09 Ry
     smearing contrib. (-TS)   =      -0.00000000 Ry
     internal energy E=F+TS    =    -190.99194208 Ry

     The total energy is F=E-TS. E is the sum of the following terms:
     one-electron contribution =    -112.09730959 Ry
     hartree contribution      =      71.83110750 Ry
     xc contribution           =     -57.91916636 Ry
     ewald contribution        =     -92.80657363 Ry

     convergence has been achieved in   9 iterations

     Writing all to output data dir ./GaAs.save/

     init_run     :      3.23s CPU      1.16s WALL (       1 calls)
     electrons    :     42.83s CPU     10.58s WALL (       1 calls)

     Called by init_run:
     wfcinit      :      1.62s CPU      0.29s WALL (       1 calls)
     potinit      :      0.04s CPU      0.05s WALL (       1 calls)
     hinit0       :      0.61s CPU      0.61s WALL (       1 calls)

     Called by electrons:
     c_bands      :     22.05s CPU      5.19s WALL (      10 calls)
     sum_band     :     12.87s CPU      3.11s WALL (      10 calls)
     v_of_rho     :      1.09s CPU      0.42s WALL (      10 calls)
     newd         :      6.80s CPU      1.79s WALL (      10 calls)
     mix_rho      :      0.50s CPU      0.18s WALL (      10 calls)

     Called by c_bands:
     init_us_2    :      0.25s CPU      0.05s WALL (      84 calls)
     init_us_2:cp :      0.24s CPU      0.05s WALL (      84 calls)
     cegterg      :     20.47s CPU      4.91s WALL (      40 calls)

     Called by *egterg:
     cdiaghg      :      0.57s CPU      0.08s WALL (     108 calls)
     h_psi        :     17.44s CPU      4.52s WALL (     116 calls)
     s_psi        :      0.43s CPU      0.09s WALL (     116 calls)
     g_psi        :      0.05s CPU      0.01s WALL (      72 calls)

     Called by h_psi:
     h_psi:calbec :      0.60s CPU      0.14s WALL (     116 calls)
     vloc_psi     :     16.34s CPU      4.28s WALL (     116 calls)
     add_vuspsi   :      0.39s CPU      0.09s WALL (     116 calls)

     General routines
     calbec       :      0.82s CPU      0.19s WALL (     156 calls)
     fft          :      1.23s CPU      0.44s WALL (     240 calls)
     ffts         :      0.14s CPU      0.04s WALL (      80 calls)
     fftw         :     16.03s CPU      4.07s WALL (   11976 calls)
     interpolate  :      0.44s CPU      0.11s WALL (      40 calls)


     PWSCF        :     47.38s CPU     12.12s WALL


   This run was terminated on:  16:34:36  12May2024            

=------------------------------------------------------------------------------=
   JOB DONE.
=------------------------------------------------------------------------------=
