
     Program PWSCF v.7.2 starts on 12May2024 at 16:36: 9 

     This program is part of the open-source Quantum ESPRESSO suite
     for quantum simulation of materials; please cite
         "P. Giannozzi et al., J. Phys.:Condens. Matter 21 395502 (2009);
         "P. Giannozzi et al., J. Phys.:Condens. Matter 29 465901 (2017);
         "P. Giannozzi et al., J. Chem. Phys. 152 154105 (2020);
          URL http://www.quantum-espresso.org", 
     in publications or presentations arising from this work. More details at
     http://www.quantum-espresso.org/quote

     Serial version
     0 MiB available memory on the printing compute node when the environment starts

     Waiting for input...
     Reading input from standard input
Warning: card   2 2 2 0 0 0 ignored

     Current dimensions of program PWSCF are:
     Max number of different atomic species (ntypx) = 10
     Max number of k-points (npk) =  40000
     Max angular momentum in pseudopotentials (lmaxx) =  4
     file Ga.rel-pbe-dn-rrkjus_psl.0.2.UPF: wavefunction(s)  4S 3D 3D renormalized


     G-vector sticks info
     --------------------
     sticks:   dense  smooth     PW     G-vecs:    dense   smooth      PW
     Sum        1573     793    253                41391    14649    2637

     Using Slab Decomposition



     bravais-lattice index     =            2
     lattice parameter (alat)  =      10.7074  a.u.
     unit-cell volume          =     306.8946 (a.u.)^3
     number of atoms/cell      =            2
     number of atomic types    =            2
     number of electrons       =        18.00
     number of Kohn-Sham states=           26
     kinetic-energy cutoff     =      50.0000  Ry
     charge density cutoff     =     400.0000  Ry
     scf convergence threshold =      1.0E-08
     mixing beta               =       0.3000
     number of iterations used =            8  plain     mixing
     Exchange-correlation= PBE
                           (   1   4   3   4   0   0   0)
     Non magnetic calculation with spin-orbit


     celldm(1)=  10.707376  celldm(2)=   0.000000  celldm(3)=   0.000000
     celldm(4)=   0.000000  celldm(5)=   0.000000  celldm(6)=   0.000000

     crystal axes: (cart. coord. in units of alat)
               a(1) = (  -0.500000   0.000000   0.500000 )  
               a(2) = (   0.000000   0.500000   0.500000 )  
               a(3) = (  -0.500000   0.500000   0.000000 )  

     reciprocal axes: (cart. coord. in units 2 pi/alat)
               b(1) = ( -1.000000 -1.000000  1.000000 )  
               b(2) = (  1.000000  1.000000  1.000000 )  
               b(3) = ( -1.000000  1.000000 -1.000000 )  


     PseudoPot. # 1 for As read from file:
     ../pseudopotential/As.rel-pbe-n-rrkjus_psl.0.2.UPF
     MD5 check sum: fd1d9cb43fef956eb1cdd0c60ce90062
     Pseudo is Ultrasoft + core correction, Zval =  5.0
     Generated using "atomic" code by A. Dal Corso  v.5.0.2 svn rev. 9415
     Using radial grid of 1209 points,  6 beta functions with: 
                l(1) =   0
                l(2) =   0
                l(3) =   1
                l(4) =   1
                l(5) =   1
                l(6) =   1
     Q(r) pseudized with 0 coefficients 


     PseudoPot. # 2 for Ga read from file:
     ../pseudopotential/Ga.rel-pbe-dn-rrkjus_psl.0.2.UPF
     MD5 check sum: b82f27152fdba9c8aaf7d704465ad383
     Pseudo is Ultrasoft + core correction, Zval = 13.0
     Generated using "atomic" code by A. Dal Corso  v.5.0.2 svn rev. 9415
     Using radial grid of 1205 points, 10 beta functions with: 
                l(1) =   0
                l(2) =   0
                l(3) =   1
                l(4) =   1
                l(5) =   1
                l(6) =   1
                l(7) =   2
                l(8) =   2
                l(9) =   2
               l(10) =   2
     Q(r) pseudized with 0 coefficients 


     atomic species   valence    mass     pseudopotential
        As             5.00    74.92160     As( 1.00)
        Ga            13.00    69.72000     Ga( 1.00)

     No symmetry found



   Cartesian axes

     site n.     atom                  positions (alat units)
         1           Ga  tau(   1) = (   0.0000000   0.0000000   0.0000000  )
         2           As  tau(   2) = (   0.2500000   0.2500000   0.2500000  )

     number of k points=    63  Gaussian smearing, width (Ry)=  0.0020
                       cart. coord. in units 2pi/alat
        k(    1) = (  -0.1000000   0.1000000   0.1000000), wk =   0.0160000
        k(    2) = (  -0.3000000   0.3000000  -0.1000000), wk =   0.0160000
        k(    3) = (   0.5000000  -0.5000000   0.7000000), wk =   0.0160000
        k(    4) = (   0.3000000  -0.3000000   0.5000000), wk =   0.0160000
        k(    5) = (   0.1000000  -0.1000000   0.3000000), wk =   0.0160000
        k(    6) = (   0.1000000   0.3000000   0.3000000), wk =   0.0160000
        k(    7) = (  -0.1000000   0.5000000   0.1000000), wk =   0.0160000
        k(    8) = (   0.7000000  -0.3000000   0.9000000), wk =   0.0160000
        k(    9) = (   0.5000000  -0.1000000   0.7000000), wk =   0.0160000
        k(   10) = (   0.3000000   0.1000000   0.5000000), wk =   0.0160000
        k(   11) = (  -0.7000000  -0.5000000  -0.5000000), wk =   0.0160000
        k(   12) = (  -0.9000000  -0.3000000  -0.7000000), wk =   0.0160000
        k(   13) = (  -0.1000000  -1.1000000   0.1000000), wk =   0.0160000
        k(   14) = (  -0.3000000  -0.9000000  -0.1000000), wk =   0.0160000
        k(   15) = (  -0.5000000  -0.7000000  -0.3000000), wk =   0.0160000
        k(   16) = (  -0.5000000  -0.3000000  -0.3000000), wk =   0.0160000
        k(   17) = (  -0.7000000  -0.1000000  -0.5000000), wk =   0.0160000
        k(   18) = (   0.1000000  -0.9000000   0.3000000), wk =   0.0160000
        k(   19) = (  -0.1000000  -0.7000000   0.1000000), wk =   0.0160000
        k(   20) = (  -0.3000000  -0.5000000  -0.1000000), wk =   0.0160000
        k(   21) = (  -0.3000000  -0.1000000  -0.1000000), wk =   0.0160000
        k(   22) = (  -0.5000000   0.1000000  -0.3000000), wk =   0.0160000
        k(   23) = (   0.3000000  -0.7000000   0.5000000), wk =   0.0160000
        k(   24) = (   0.1000000  -0.5000000   0.3000000), wk =   0.0160000
        k(   25) = (  -0.1000000  -0.3000000   0.1000000), wk =   0.0160000
        k(   26) = (  -0.3000000  -0.1000000   0.3000000), wk =   0.0160000
        k(   27) = (  -0.5000000   0.1000000   0.1000000), wk =   0.0160000
        k(   28) = (   0.3000000  -0.7000000   0.9000000), wk =   0.0160000
        k(   29) = (   0.1000000  -0.5000000   0.7000000), wk =   0.0160000
        k(   30) = (  -0.1000000  -0.3000000   0.5000000), wk =   0.0160000
        k(   31) = (  -0.1000000   0.1000000   0.5000000), wk =   0.0160000
        k(   32) = (  -0.3000000   0.3000000   0.3000000), wk =   0.0160000
        k(   33) = (   0.5000000  -0.5000000   1.1000000), wk =   0.0160000
        k(   34) = (   0.3000000  -0.3000000   0.9000000), wk =   0.0160000
        k(   35) = (   0.1000000  -0.1000000   0.7000000), wk =   0.0160000
        k(   36) = (  -0.9000000  -0.7000000  -0.3000000), wk =   0.0160000
        k(   37) = (  -1.1000000  -0.5000000  -0.5000000), wk =   0.0160000
        k(   38) = (  -0.3000000  -1.3000000   0.3000000), wk =   0.0160000
        k(   39) = (  -0.5000000  -1.1000000   0.1000000), wk =   0.0160000
        k(   40) = (  -0.7000000  -0.9000000  -0.1000000), wk =   0.0160000
        k(   41) = (  -0.7000000  -0.5000000  -0.1000000), wk =   0.0160000
        k(   42) = (  -0.9000000  -0.3000000  -0.3000000), wk =   0.0160000
        k(   43) = (  -0.1000000  -1.1000000   0.5000000), wk =   0.0160000
        k(   44) = (  -0.3000000  -0.9000000   0.3000000), wk =   0.0160000
        k(   45) = (  -0.5000000  -0.7000000   0.1000000), wk =   0.0160000
        k(   46) = (  -0.5000000  -0.3000000   0.1000000), wk =   0.0160000
        k(   47) = (  -0.7000000  -0.1000000  -0.1000000), wk =   0.0160000
        k(   48) = (   0.1000000  -0.9000000   0.7000000), wk =   0.0160000
        k(   49) = (  -0.1000000  -0.7000000   0.5000000), wk =   0.0160000
        k(   50) = (  -0.3000000  -0.5000000   0.3000000), wk =   0.0160000
        k(   51) = (   0.5000000   0.7000000  -0.5000000), wk =   0.0160000
        k(   52) = (   0.3000000   0.9000000  -0.7000000), wk =   0.0160000
        k(   53) = (   1.1000000   0.1000000   0.1000000), wk =   0.0160000
        k(   54) = (   0.9000000   0.3000000  -0.1000000), wk =   0.0160000
        k(   55) = (   0.7000000   0.5000000  -0.3000000), wk =   0.0160000
        k(   56) = (   0.7000000   0.9000000  -0.3000000), wk =   0.0160000
        k(   57) = (   0.5000000   1.1000000  -0.5000000), wk =   0.0160000
        k(   58) = (   1.3000000   0.3000000   0.3000000), wk =   0.0160000
        k(   59) = (   1.1000000   0.5000000   0.1000000), wk =   0.0160000
        k(   60) = (   0.9000000   0.7000000  -0.1000000), wk =   0.0160000
        k(   61) = (  -0.1000000   0.1000000  -1.1000000), wk =   0.0160000
        k(   62) = (  -0.3000000   0.3000000  -1.3000000), wk =   0.0160000
        k(   63) = (   0.5000000  -0.5000000  -0.5000000), wk =   0.0080000

     Dense  grid:    41391 G-vectors     FFT dimensions: (  50,  50,  50)

     Smooth grid:    14649 G-vectors     FFT dimensions: (  36,  36,  36)

     Estimated max dynamical RAM per process >     567.73 MB

     Initial potential from superposition of free atoms

     starting charge      17.9971, renormalised to      18.0000
     Starting wfcs are   26 randomized atomic wfcs

     total cpu time spent up to now is        4.8 secs

     Self-consistent Calculation

     iteration #  1     ecut=    50.00 Ry     beta= 0.30
     Davidson diagonalization with overlap
     ethr =  1.00E-02,  avg # of iterations =  3.9

     Threshold (ethr) on eigenvalues was too large:
     Diagonalizing with lowered threshold

     Davidson diagonalization with overlap
     ethr =  2.56E-04,  avg # of iterations =  2.5

     total cpu time spent up to now is       26.2 secs

     total energy              =    -191.00345137 Ry
     estimated scf accuracy    <       0.04604458 Ry

     iteration #  2     ecut=    50.00 Ry     beta= 0.30
     Davidson diagonalization with overlap
     ethr =  2.56E-04,  avg # of iterations =  1.2

     total cpu time spent up to now is       36.2 secs

     total energy              =    -191.00370181 Ry
     estimated scf accuracy    <       0.01303264 Ry

     iteration #  3     ecut=    50.00 Ry     beta= 0.30
     Davidson diagonalization with overlap
     ethr =  7.24E-05,  avg # of iterations =  1.3

     total cpu time spent up to now is       48.3 secs

     total energy              =    -191.00439058 Ry
     estimated scf accuracy    <       0.00223694 Ry

     iteration #  4     ecut=    50.00 Ry     beta= 0.30
     Davidson diagonalization with overlap
     ethr =  1.24E-05,  avg # of iterations =  2.2

     total cpu time spent up to now is       59.1 secs

     total energy              =    -191.00449186 Ry
     estimated scf accuracy    <       0.00005176 Ry

     iteration #  5     ecut=    50.00 Ry     beta= 0.30
     Davidson diagonalization with overlap
     ethr =  2.88E-07,  avg # of iterations =  3.0

     total cpu time spent up to now is       72.3 secs

     total energy              =    -191.00451314 Ry
     estimated scf accuracy    <       0.00002508 Ry

     iteration #  6     ecut=    50.00 Ry     beta= 0.30
     Davidson diagonalization with overlap
     ethr =  1.39E-07,  avg # of iterations =  1.0

     total cpu time spent up to now is       81.6 secs

     total energy              =    -191.00451193 Ry
     estimated scf accuracy    <       0.00000446 Ry

     iteration #  7     ecut=    50.00 Ry     beta= 0.30
     Davidson diagonalization with overlap
     ethr =  2.48E-08,  avg # of iterations =  2.0

     total cpu time spent up to now is       94.4 secs

     total energy              =    -191.00451395 Ry
     estimated scf accuracy    <       0.00000137 Ry

     iteration #  8     ecut=    50.00 Ry     beta= 0.30
     Davidson diagonalization with overlap
     ethr =  7.62E-09,  avg # of iterations =  1.0

     total cpu time spent up to now is      103.9 secs

     total energy              =    -191.00451355 Ry
     estimated scf accuracy    <       0.00000061 Ry

     iteration #  9     ecut=    50.00 Ry     beta= 0.30
     Davidson diagonalization with overlap
     ethr =  3.37E-09,  avg # of iterations =  2.0

     total cpu time spent up to now is      115.6 secs

     total energy              =    -191.00451374 Ry
     estimated scf accuracy    <       0.00000003 Ry

     iteration # 10     ecut=    50.00 Ry     beta= 0.30
     Davidson diagonalization with overlap
     ethr =  1.67E-10,  avg # of iterations =  2.0

     total cpu time spent up to now is      126.0 secs

     End of self-consistent calculation

          k =-0.1000 0.1000 0.1000 (  1841 PWs)   bands (ev):

    -8.3336  -8.3336  -8.3296  -8.3260  -7.9058  -7.9058  -7.8541  -7.8541
    -7.8525  -7.8485  -5.8719  -5.8719   5.1672   5.1672   6.4313   6.4313
     6.6449   6.6475   8.1455   8.1455  10.5645  10.5645  10.7015  10.7015
    10.7239  10.7248

          k =-0.3000 0.3000-0.1000 (  1848 PWs)   bands (ev):

    -8.3490  -8.3385  -8.3259  -8.3224  -7.9219  -7.9014  -7.8654  -7.8601
    -7.8465  -7.8409  -5.2924  -5.2896   2.7313   2.7519   5.0993   5.1462
     6.2317   6.2328   8.8330   8.8799  11.1054  11.1172  11.2137  11.2364
    12.4167  12.4345

          k = 0.5000-0.5000 0.7000 (  1835 PWs)   bands (ev):

    -8.3655  -8.3430  -8.3223  -8.3214  -7.9339  -7.8949  -7.8772  -7.8673
    -7.8357  -7.8329  -4.2910  -4.2883   0.3445   0.3598   4.6598   4.6960
     5.5388   5.5411   8.4870   8.5179  11.2207  11.2220  11.6047  11.6047
    14.6359  14.6614

          k = 0.3000-0.3000 0.5000 (  1838 PWs)   bands (ev):

    -8.3615  -8.3412  -8.3246  -8.3211  -7.9307  -7.8979  -7.8731  -7.8660
    -7.8380  -7.8351  -4.5874  -4.5847   0.9305   0.9443   5.0158   5.0568
     5.3667   5.3765   8.6104   8.6421  10.9756  10.9810  11.9648  11.9667
    13.6066  13.6069

          k = 0.1000-0.1000 0.3000 (  1834 PWs)   bands (ev):

    -8.3422  -8.3359  -8.3270  -8.3246  -7.9139  -7.9051  -7.8592  -7.8569
    -7.8496  -7.8455  -5.5720  -5.5708   3.7841   3.7985   5.7693   5.8027
     5.9610   5.9629   9.0410   9.0975  10.0247  10.0572  11.6654  11.6727
    11.8423  11.8505

          k = 0.1000 0.3000 0.3000 (  1848 PWs)   bands (ev):

    -8.3490  -8.3385  -8.3259  -8.3224  -7.9219  -7.9014  -7.8654  -7.8601
    -7.8465  -7.8409  -5.2924  -5.2896   2.7313   2.7519   5.0993   5.1462
     6.2317   6.2328   8.8330   8.8799  11.1054  11.1172  11.2137  11.2364
    12.4167  12.4345

          k =-0.1000 0.5000 0.1000 (  1846 PWs)   bands (ev):

    -8.3575  -8.3457  -8.3205  -8.3167  -7.9266  -7.9069  -7.8557  -7.8547
    -7.8458  -7.8456  -5.0096  -5.0074   2.3565   2.3738   4.8515   4.8992
     5.0708   5.0872   9.0049   9.0270  10.0945  10.1084  12.6254  12.6412
    13.0884  13.0904

          k = 0.7000-0.3000 0.9000 (  1832 PWs)   bands (ev):

    -8.3780  -8.3470  -8.3159  -8.3082  -7.9499  -7.8942  -7.8606  -7.8562
    -7.8405  -7.8366  -4.1214  -4.1182   0.7357   0.7720   3.5630   3.6259
     4.5212   4.5602   9.4528   9.4871  10.7405  10.7957  12.1933  12.2392
    14.3851  14.4124

          k = 0.5000-0.1000 0.7000 (  1833 PWs)   bands (ev):

    -8.3824  -8.3453  -8.3160  -8.3050  -7.9578  -7.8818  -7.8728  -7.8579
    -7.8371  -7.8351  -3.8864  -3.8836   0.3773   0.4254   3.0527   3.1164
     4.6887   4.7138   9.7516   9.8002  11.4196  11.4408  12.7251  12.8164
    14.3396  14.4094

          k = 0.3000 0.1000 0.5000 (  1844 PWs)   bands (ev):

    -8.3628  -8.3431  -8.3223  -8.3152  -7.9359  -7.8964  -7.8678  -7.8597
    -7.8411  -7.8392  -4.7745  -4.7704   1.6565   1.6849   4.2533   4.3091
     5.4552   5.4876   9.4761   9.5411  10.6546  10.6814  12.1261  12.1762
    12.7602  12.8098

          k =-0.7000-0.5000-0.5000 (  1835 PWs)   bands (ev):

    -8.3655  -8.3430  -8.3223  -8.3214  -7.9339  -7.8949  -7.8772  -7.8673
    -7.8357  -7.8329  -4.2910  -4.2883   0.3445   0.3598   4.6598   4.6960
     5.5388   5.5411   8.4870   8.5179  11.2207  11.2220  11.6047  11.6047
    14.6359  14.6614

          k =-0.9000-0.3000-0.7000 (  1832 PWs)   bands (ev):

    -8.3780  -8.3470  -8.3159  -8.3082  -7.9499  -7.8942  -7.8606  -7.8562
    -7.8405  -7.8366  -4.1214  -4.1182   0.7357   0.7720   3.5630   3.6259
     4.5212   4.5602   9.4528   9.4871  10.7405  10.7957  12.1933  12.2392
    14.3851  14.4124

          k =-0.1000-1.1000 0.1000 (  1812 PWs)   bands (ev):

    -8.3791  -8.3594  -8.3109  -8.3071  -7.9410  -7.9094  -7.8528  -7.8480
    -7.8414  -7.8327  -3.6211  -3.6209   0.0739   0.0940   3.6959   3.7303
     4.1443   4.1512   8.3266   8.3312   8.9988   9.0258  15.6299  15.6685
    16.0351  16.0370

          k =-0.3000-0.9000-0.1000 (  1821 PWs)   bands (ev):

    -8.3858  -8.3504  -8.3127  -8.3032  -7.9573  -7.8932  -7.8563  -7.8528
    -7.8421  -7.8328  -3.5823  -3.5820   0.1063   0.1495   3.1591   3.2173
     3.9977   4.0208   9.2001   9.2209  10.5199  10.5695  13.5325  13.5536
    15.0601  15.0937

          k =-0.5000-0.7000-0.3000 (  1824 PWs)   bands (ev):

    -8.3748  -8.3454  -8.3204  -8.3108  -7.9472  -7.8863  -7.8771  -7.8629
    -7.8350  -7.8338  -4.0221  -4.0191   0.1853   0.2135   3.8695   3.9180
     5.0284   5.0521   9.2786   9.3231  10.8713  10.8795  12.5056  12.5465
    14.5697  14.5878

          k =-0.5000-0.3000-0.3000 (  1838 PWs)   bands (ev):

    -8.3615  -8.3412  -8.3246  -8.3211  -7.9307  -7.8979  -7.8731  -7.8660
    -7.8380  -7.8351  -4.5874  -4.5847   0.9305   0.9443   5.0158   5.0568
     5.3667   5.3765   8.6104   8.6421  10.9756  10.9810  11.9648  11.9667
    13.6066  13.6069

          k =-0.7000-0.1000-0.5000 (  1833 PWs)   bands (ev):

    -8.3824  -8.3453  -8.3160  -8.3050  -7.9578  -7.8818  -7.8728  -7.8579
    -7.8371  -7.8351  -3.8864  -3.8836   0.3773   0.4254   3.0527   3.1164
     4.6887   4.7138   9.7516   9.8002  11.4196  11.4408  12.7251  12.8164
    14.3396  14.4094

          k = 0.1000-0.9000 0.3000 (  1821 PWs)   bands (ev):

    -8.3858  -8.3504  -8.3127  -8.3032  -7.9573  -7.8932  -7.8563  -7.8528
    -7.8421  -7.8328  -3.5823  -3.5820   0.1063   0.1495   3.1591   3.2173
     3.9977   4.0208   9.2001   9.2209  10.5199  10.5695  13.5325  13.5536
    15.0601  15.0937

          k =-0.1000-0.7000 0.1000 (  1816 PWs)   bands (ev):

    -8.3709  -8.3536  -8.3146  -8.3111  -7.9362  -7.9083  -7.8541  -7.8512
    -7.8438  -7.8378  -4.2738  -4.2719   1.0315   1.0501   4.0958   4.1343
     4.4623   4.4716   8.5375   8.5426   9.5431   9.5650  13.9780  13.9793
    14.6227  14.6254

          k =-0.3000-0.5000-0.1000 (  1844 PWs)   bands (ev):

    -8.3628  -8.3431  -8.3223  -8.3152  -7.9359  -7.8964  -7.8678  -7.8597
    -7.8411  -7.8392  -4.7745  -4.7704   1.6565   1.6849   4.2533   4.3091
     5.4552   5.4876   9.4761   9.5411  10.6546  10.6814  12.1261  12.1762
    12.7602  12.8098

          k =-0.3000-0.1000-0.1000 (  1834 PWs)   bands (ev):

    -8.3422  -8.3359  -8.3270  -8.3246  -7.9139  -7.9051  -7.8592  -7.8569
    -7.8496  -7.8455  -5.5720  -5.5708   3.7841   3.7985   5.7693   5.8027
     5.9610   5.9629   9.0410   9.0975  10.0247  10.0572  11.6654  11.6727
    11.8423  11.8505

          k =-0.5000 0.1000-0.3000 (  1844 PWs)   bands (ev):

    -8.3628  -8.3431  -8.3223  -8.3152  -7.9359  -7.8964  -7.8678  -7.8597
    -7.8411  -7.8392  -4.7745  -4.7704   1.6565   1.6849   4.2533   4.3091
     5.4552   5.4876   9.4761   9.5411  10.6546  10.6814  12.1261  12.1762
    12.7602  12.8098

          k = 0.3000-0.7000 0.5000 (  1824 PWs)   bands (ev):

    -8.3748  -8.3454  -8.3204  -8.3108  -7.9472  -7.8863  -7.8771  -7.8629
    -7.8350  -7.8338  -4.0221  -4.0191   0.1853   0.2135   3.8695   3.9180
     5.0284   5.0521   9.2786   9.3231  10.8713  10.8795  12.5056  12.5465
    14.5697  14.5878

          k = 0.1000-0.5000 0.3000 (  1844 PWs)   bands (ev):

    -8.3628  -8.3431  -8.3223  -8.3152  -7.9359  -7.8964  -7.8678  -7.8597
    -7.8411  -7.8392  -4.7745  -4.7704   1.6565   1.6849   4.2533   4.3091
     5.4552   5.4876   9.4761   9.5411  10.6546  10.6814  12.1261  12.1762
    12.7602  12.8098

          k =-0.1000-0.3000 0.1000 (  1834 PWs)   bands (ev):

    -8.3422  -8.3359  -8.3270  -8.3246  -7.9139  -7.9051  -7.8592  -7.8569
    -7.8496  -7.8455  -5.5720  -5.5708   3.7841   3.7985   5.7693   5.8027
     5.9610   5.9629   9.0410   9.0975  10.0247  10.0572  11.6654  11.6727
    11.8423  11.8505

          k =-0.3000-0.1000 0.3000 (  1848 PWs)   bands (ev):

    -8.3490  -8.3385  -8.3259  -8.3224  -7.9219  -7.9014  -7.8654  -7.8601
    -7.8465  -7.8409  -5.2924  -5.2896   2.7313   2.7519   5.0993   5.1462
     6.2317   6.2328   8.8330   8.8799  11.1054  11.1172  11.2137  11.2364
    12.4167  12.4345

          k =-0.5000 0.1000 0.1000 (  1846 PWs)   bands (ev):

    -8.3575  -8.3457  -8.3205  -8.3167  -7.9266  -7.9069  -7.8557  -7.8547
    -7.8458  -7.8456  -5.0096  -5.0074   2.3565   2.3738   4.8515   4.8992
     5.0708   5.0872   9.0049   9.0270  10.0945  10.1084  12.6254  12.6412
    13.0884  13.0904

          k = 0.3000-0.7000 0.9000 (  1832 PWs)   bands (ev):

    -8.3780  -8.3470  -8.3159  -8.3082  -7.9499  -7.8942  -7.8606  -7.8562
    -7.8405  -7.8366  -4.1214  -4.1182   0.7357   0.7720   3.5630   3.6259
     4.5212   4.5602   9.4528   9.4871  10.7405  10.7957  12.1933  12.2392
    14.3851  14.4124

          k = 0.1000-0.5000 0.7000 (  1833 PWs)   bands (ev):

    -8.3824  -8.3453  -8.3160  -8.3050  -7.9578  -7.8818  -7.8728  -7.8579
    -7.8371  -7.8351  -3.8864  -3.8836   0.3773   0.4254   3.0527   3.1164
     4.6887   4.7138   9.7516   9.8002  11.4196  11.4408  12.7251  12.8164
    14.3396  14.4094

          k =-0.1000-0.3000 0.5000 (  1844 PWs)   bands (ev):

    -8.3628  -8.3431  -8.3223  -8.3152  -7.9359  -7.8964  -7.8678  -7.8597
    -7.8411  -7.8392  -4.7745  -4.7704   1.6565   1.6849   4.2533   4.3091
     5.4552   5.4876   9.4761   9.5411  10.6546  10.6814  12.1261  12.1762
    12.7602  12.8098

          k =-0.1000 0.1000 0.5000 (  1846 PWs)   bands (ev):

    -8.3575  -8.3457  -8.3205  -8.3167  -7.9266  -7.9069  -7.8557  -7.8547
    -7.8458  -7.8456  -5.0096  -5.0074   2.3565   2.3738   4.8515   4.8992
     5.0708   5.0872   9.0049   9.0270  10.0945  10.1084  12.6254  12.6412
    13.0884  13.0904

          k =-0.3000 0.3000 0.3000 (  1853 PWs)   bands (ev):

    -8.3461  -8.3461  -8.3278  -8.3221  -7.9127  -7.9127  -7.8664  -7.8664
    -7.8433  -7.8369  -5.0385  -5.0385   1.7942   1.7942   5.7591   5.7591
     5.9657   5.9690   7.9753   7.9753  11.3128  11.3128  11.4309  11.4335
    13.4413  13.4413

          k = 0.5000-0.5000 1.1000 (  1825 PWs)   bands (ev):

    -8.3738  -8.3435  -8.3173  -8.3122  -7.9475  -7.8872  -7.8740  -7.8590
    -7.8388  -7.8365  -4.3590  -4.3545   0.9098   0.9481   3.5274   3.5839
     5.4903   5.4904   9.3022   9.3382  11.7179  11.7340  12.2085  12.2101
    13.2550  13.2606

          k = 0.3000-0.3000 0.9000 (  1830 PWs)   bands (ev):

    -8.3857  -8.3465  -8.3139  -8.3041  -7.9591  -7.8885  -7.8621  -7.8566
    -7.8400  -7.8332  -3.6827  -3.6815   0.1667   0.2169   2.8542   2.9149
     4.6563   4.6576   8.8471   8.8556  12.0458  12.1597  13.6621  13.7397
    13.9717  13.9758

          k = 0.1000-0.1000 0.7000 (  1816 PWs)   bands (ev):

    -8.3709  -8.3536  -8.3146  -8.3111  -7.9362  -7.9083  -7.8541  -7.8512
    -7.8438  -7.8378  -4.2738  -4.2719   1.0315   1.0501   4.0958   4.1343
     4.4623   4.4716   8.5375   8.5426   9.5431   9.5650  13.9780  13.9793
    14.6227  14.6254

          k =-0.9000-0.7000-0.3000 (  1832 PWs)   bands (ev):

    -8.3780  -8.3470  -8.3159  -8.3082  -7.9499  -7.8942  -7.8606  -7.8562
    -7.8405  -7.8366  -4.1214  -4.1182   0.7357   0.7720   3.5630   3.6259
     4.5212   4.5602   9.4528   9.4871  10.7405  10.7957  12.1933  12.2392
    14.3851  14.4124

          k =-1.1000-0.5000-0.5000 (  1825 PWs)   bands (ev):

    -8.3738  -8.3435  -8.3173  -8.3122  -7.9475  -7.8872  -7.8740  -7.8590
    -7.8388  -7.8365  -4.3590  -4.3545   0.9098   0.9481   3.5274   3.5839
     5.4903   5.4904   9.3022   9.3382  11.7179  11.7340  12.2085  12.2101
    13.2550  13.2606

          k =-0.3000-1.3000 0.3000 (  1830 PWs)   bands (ev):

    -8.3777  -8.3452  -8.3175  -8.3102  -7.9490  -7.8916  -7.8672  -7.8594
    -7.8375  -7.8355  -4.0616  -4.0585   0.3787   0.4091   3.7487   3.7960
     4.9067   4.9098   9.0254   9.0427  11.3695  11.4287  12.8970  12.8999
    13.1564  13.1898

          k =-0.5000-1.1000 0.1000 (  1830 PWs)   bands (ev):

    -8.3896  -8.3456  -8.3105  -8.3036  -7.9658  -7.8794  -7.8661  -7.8545
    -7.8380  -7.8363  -3.5579  -3.5578   0.1279   0.1830   2.9470   3.0200
     3.8201   3.8525  10.6534  10.7651  11.3193  11.3855  12.3456  12.4263
    13.3787  13.4486

          k =-0.7000-0.9000-0.1000 (  1821 PWs)   bands (ev):

    -8.3858  -8.3504  -8.3127  -8.3032  -7.9573  -7.8932  -7.8563  -7.8528
    -7.8421  -7.8328  -3.5823  -3.5820   0.1063   0.1495   3.1591   3.2173
     3.9977   4.0208   9.2001   9.2209  10.5199  10.5695  13.5325  13.5536
    15.0601  15.0937

          k =-0.7000-0.5000-0.1000 (  1833 PWs)   bands (ev):

    -8.3824  -8.3453  -8.3160  -8.3050  -7.9578  -7.8818  -7.8728  -7.8579
    -7.8371  -7.8351  -3.8864  -3.8836   0.3773   0.4254   3.0527   3.1164
     4.6887   4.7138   9.7516   9.8002  11.4196  11.4408  12.7251  12.8164
    14.3396  14.4094

          k =-0.9000-0.3000-0.3000 (  1830 PWs)   bands (ev):

    -8.3857  -8.3465  -8.3139  -8.3041  -7.9591  -7.8885  -7.8621  -7.8566
    -7.8400  -7.8332  -3.6827  -3.6815   0.1667   0.2169   2.8542   2.9149
     4.6563   4.6576   8.8471   8.8556  12.0458  12.1597  13.6621  13.7397
    13.9717  13.9758

          k =-0.1000-1.1000 0.5000 (  1830 PWs)   bands (ev):

    -8.3896  -8.3456  -8.3105  -8.3036  -7.9658  -7.8794  -7.8661  -7.8545
    -7.8380  -7.8363  -3.5579  -3.5578   0.1279   0.1830   2.9470   3.0200
     3.8201   3.8525  10.6534  10.7651  11.3193  11.3855  12.3456  12.4263
    13.3787  13.4486

          k =-0.3000-0.9000 0.3000 (  1830 PWs)   bands (ev):

    -8.3857  -8.3465  -8.3139  -8.3041  -7.9591  -7.8885  -7.8621  -7.8566
    -7.8400  -7.8332  -3.6827  -3.6815   0.1667   0.2169   2.8542   2.9149
     4.6563   4.6576   8.8471   8.8556  12.0458  12.1597  13.6621  13.7397
    13.9717  13.9758

          k =-0.5000-0.7000 0.1000 (  1833 PWs)   bands (ev):

    -8.3824  -8.3453  -8.3160  -8.3050  -7.9578  -7.8818  -7.8728  -7.8579
    -7.8371  -7.8351  -3.8864  -3.8836   0.3773   0.4254   3.0527   3.1164
     4.6887   4.7138   9.7516   9.8002  11.4196  11.4408  12.7251  12.8164
    14.3396  14.4094

          k =-0.5000-0.3000 0.1000 (  1844 PWs)   bands (ev):

    -8.3628  -8.3431  -8.3223  -8.3152  -7.9359  -7.8964  -7.8678  -7.8597
    -7.8411  -7.8392  -4.7745  -4.7704   1.6565   1.6849   4.2533   4.3091
     5.4552   5.4876   9.4761   9.5411  10.6546  10.6814  12.1261  12.1762
    12.7602  12.8098

          k =-0.7000-0.1000-0.1000 (  1816 PWs)   bands (ev):

    -8.3709  -8.3536  -8.3146  -8.3111  -7.9362  -7.9083  -7.8541  -7.8512
    -7.8438  -7.8378  -4.2738  -4.2719   1.0315   1.0501   4.0958   4.1343
     4.4623   4.4716   8.5375   8.5426   9.5431   9.5650  13.9780  13.9793
    14.6227  14.6254

          k = 0.1000-0.9000 0.7000 (  1821 PWs)   bands (ev):

    -8.3858  -8.3504  -8.3127  -8.3032  -7.9573  -7.8932  -7.8563  -7.8528
    -7.8421  -7.8328  -3.5823  -3.5820   0.1063   0.1495   3.1591   3.2173
     3.9977   4.0208   9.2001   9.2209  10.5199  10.5695  13.5325  13.5536
    15.0601  15.0937

          k =-0.1000-0.7000 0.5000 (  1833 PWs)   bands (ev):

    -8.3824  -8.3453  -8.3160  -8.3050  -7.9578  -7.8818  -7.8728  -7.8579
    -7.8371  -7.8351  -3.8864  -3.8836   0.3773   0.4254   3.0527   3.1164
     4.6887   4.7138   9.7516   9.8002  11.4196  11.4408  12.7251  12.8164
    14.3396  14.4094

          k =-0.3000-0.5000 0.3000 (  1838 PWs)   bands (ev):

    -8.3615  -8.3412  -8.3246  -8.3211  -7.9307  -7.8979  -7.8731  -7.8660
    -7.8380  -7.8351  -4.5874  -4.5847   0.9305   0.9443   5.0158   5.0568
     5.3667   5.3765   8.6104   8.6421  10.9756  10.9810  11.9648  11.9667
    13.6066  13.6069

          k = 0.5000 0.7000-0.5000 (  1835 PWs)   bands (ev):

    -8.3655  -8.3430  -8.3223  -8.3214  -7.9339  -7.8949  -7.8772  -7.8673
    -7.8357  -7.8329  -4.2910  -4.2883   0.3445   0.3598   4.6598   4.6960
     5.5388   5.5411   8.4870   8.5179  11.2207  11.2220  11.6047  11.6047
    14.6359  14.6614

          k = 0.3000 0.9000-0.7000 (  1832 PWs)   bands (ev):

    -8.3780  -8.3470  -8.3159  -8.3082  -7.9499  -7.8942  -7.8606  -7.8562
    -7.8405  -7.8366  -4.1214  -4.1182   0.7357   0.7720   3.5630   3.6259
     4.5212   4.5602   9.4528   9.4871  10.7405  10.7957  12.1933  12.2392
    14.3851  14.4124

          k = 1.1000 0.1000 0.1000 (  1812 PWs)   bands (ev):

    -8.3791  -8.3594  -8.3109  -8.3071  -7.9410  -7.9094  -7.8528  -7.8480
    -7.8414  -7.8327  -3.6211  -3.6209   0.0739   0.0940   3.6959   3.7303
     4.1443   4.1512   8.3266   8.3312   8.9988   9.0258  15.6299  15.6685
    16.0351  16.0370

          k = 0.9000 0.3000-0.1000 (  1821 PWs)   bands (ev):

    -8.3858  -8.3504  -8.3127  -8.3032  -7.9573  -7.8932  -7.8563  -7.8528
    -7.8421  -7.8328  -3.5823  -3.5820   0.1063   0.1495   3.1591   3.2173
     3.9977   4.0208   9.2001   9.2209  10.5199  10.5695  13.5325  13.5536
    15.0601  15.0937

          k = 0.7000 0.5000-0.3000 (  1824 PWs)   bands (ev):

    -8.3748  -8.3454  -8.3204  -8.3108  -7.9472  -7.8863  -7.8771  -7.8629
    -7.8350  -7.8338  -4.0221  -4.0191   0.1853   0.2135   3.8695   3.9180
     5.0284   5.0521   9.2786   9.3231  10.8713  10.8795  12.5056  12.5465
    14.5697  14.5878

          k = 0.7000 0.9000-0.3000 (  1832 PWs)   bands (ev):

    -8.3780  -8.3470  -8.3159  -8.3082  -7.9499  -7.8942  -7.8606  -7.8562
    -7.8405  -7.8366  -4.1214  -4.1182   0.7357   0.7720   3.5630   3.6259
     4.5212   4.5602   9.4528   9.4871  10.7405  10.7957  12.1933  12.2392
    14.3851  14.4124

          k = 0.5000 1.1000-0.5000 (  1825 PWs)   bands (ev):

    -8.3738  -8.3435  -8.3173  -8.3122  -7.9475  -7.8872  -7.8740  -7.8590
    -7.8388  -7.8365  -4.3590  -4.3545   0.9098   0.9481   3.5274   3.5839
     5.4903   5.4904   9.3022   9.3382  11.7179  11.7340  12.2085  12.2101
    13.2550  13.2606

          k = 1.3000 0.3000 0.3000 (  1830 PWs)   bands (ev):

    -8.3777  -8.3452  -8.3175  -8.3102  -7.9490  -7.8916  -7.8672  -7.8594
    -7.8375  -7.8355  -4.0616  -4.0585   0.3787   0.4091   3.7487   3.7960
     4.9067   4.9098   9.0254   9.0427  11.3695  11.4287  12.8970  12.8999
    13.1564  13.1898

          k = 1.1000 0.5000 0.1000 (  1830 PWs)   bands (ev):

    -8.3896  -8.3456  -8.3105  -8.3036  -7.9658  -7.8794  -7.8661  -7.8545
    -7.8380  -7.8363  -3.5579  -3.5578   0.1279   0.1830   2.9470   3.0200
     3.8201   3.8525  10.6534  10.7651  11.3193  11.3855  12.3456  12.4263
    13.3787  13.4486

          k = 0.9000 0.7000-0.1000 (  1821 PWs)   bands (ev):

    -8.3858  -8.3504  -8.3127  -8.3032  -7.9573  -7.8932  -7.8563  -7.8528
    -7.8421  -7.8328  -3.5823  -3.5820   0.1063   0.1495   3.1591   3.2173
     3.9977   4.0208   9.2001   9.2209  10.5199  10.5695  13.5325  13.5536
    15.0601  15.0937

          k =-0.1000 0.1000-1.1000 (  1812 PWs)   bands (ev):

    -8.3791  -8.3594  -8.3109  -8.3071  -7.9410  -7.9094  -7.8528  -7.8480
    -7.8414  -7.8327  -3.6211  -3.6209   0.0739   0.0940   3.6959   3.7303
     4.1443   4.1512   8.3266   8.3312   8.9988   9.0258  15.6299  15.6685
    16.0351  16.0370

          k =-0.3000 0.3000-1.3000 (  1830 PWs)   bands (ev):

    -8.3777  -8.3452  -8.3175  -8.3102  -7.9490  -7.8916  -7.8672  -7.8594
    -7.8375  -7.8355  -4.0616  -4.0585   0.3787   0.4091   3.7487   3.7960
     4.9067   4.9098   9.0254   9.0427  11.3695  11.4287  12.8970  12.8999
    13.1564  13.1898

          k = 0.5000-0.5000-0.5000 (  1850 PWs)   bands (ev):

    -8.3543  -8.3543  -8.3235  -8.3235  -7.9149  -7.9149  -7.8719  -7.8719
    -7.8333  -7.8333  -4.2463  -4.2463   0.0833   0.0833   5.4572   5.4572
     5.6632   5.6632   7.6699   7.6699  11.2791  11.2791  11.3716  11.3716
    14.5011  14.5011

     the Fermi energy is     6.9451 ev

!    total energy              =    -191.00451374 Ry
     estimated scf accuracy    <          1.6E-10 Ry
     smearing contrib. (-TS)   =      -0.00000000 Ry
     internal energy E=F+TS    =    -191.00451374 Ry

     The total energy is F=E-TS. E is the sum of the following terms:
     one-electron contribution =    -112.09944118 Ry
     hartree contribution      =      71.80582724 Ry
     xc contribution           =     -57.90432617 Ry
     ewald contribution        =     -92.80657363 Ry

     convergence has been achieved in  10 iterations

     Writing all to output data dir ./GaAs.save/

     init_run     :     14.45s CPU      4.50s WALL (       1 calls)
     electrons    :    561.66s CPU    121.16s WALL (       1 calls)

     Called by init_run:
     wfcinit      :     13.22s CPU      3.66s WALL (       1 calls)
     potinit      :      0.04s CPU      0.05s WALL (       1 calls)
     hinit0       :      0.61s CPU      0.61s WALL (       1 calls)

     Called by electrons:
     c_bands      :    457.22s CPU     97.95s WALL (      11 calls)
     sum_band     :     94.06s CPU     20.61s WALL (      11 calls)
     v_of_rho     :      1.64s CPU      0.45s WALL (      11 calls)
     newd         :      8.16s CPU      2.02s WALL (      11 calls)
     mix_rho      :      0.67s CPU      0.19s WALL (      11 calls)

     Called by c_bands:
     init_us_2    :      6.09s CPU      0.87s WALL (    1449 calls)
     init_us_2:cp :      6.06s CPU      0.87s WALL (    1449 calls)
     cegterg      :    423.52s CPU     92.87s WALL (     693 calls)

     Called by *egterg:
     cdiaghg      :      9.99s CPU      1.44s WALL (    2019 calls)
     h_psi        :    349.48s CPU     82.90s WALL (    2145 calls)
     s_psi        :      8.43s CPU      1.64s WALL (    2145 calls)
     g_psi        :      1.12s CPU      0.26s WALL (    1389 calls)

     Called by h_psi:
     h_psi:calbec :     15.40s CPU      3.41s WALL (    2145 calls)
     vloc_psi     :    325.98s CPU     77.68s WALL (    2145 calls)
     add_vuspsi   :      6.67s CPU      1.51s WALL (    2145 calls)

     General routines
     calbec       :     20.40s CPU      4.71s WALL (    2838 calls)
     fft          :      1.54s CPU      0.47s WALL (     265 calls)
     ffts         :      0.31s CPU      0.07s WALL (      88 calls)
     fftw         :    316.64s CPU     73.93s WALL (  209312 calls)
     interpolate  :      0.42s CPU      0.12s WALL (      44 calls)


     PWSCF        :   9m37.80s CPU   2m 6.11s WALL


   This run was terminated on:  16:38:15  12May2024            

=------------------------------------------------------------------------------=
   JOB DONE.
=------------------------------------------------------------------------------=
