
     Program PWSCF v.7.2 starts on 12May2024 at 18:51:55 

     This program is part of the open-source Quantum ESPRESSO suite
     for quantum simulation of materials; please cite
         "P. Giannozzi et al., J. Phys.:Condens. Matter 21 395502 (2009);
         "P. Giannozzi et al., J. Phys.:Condens. Matter 29 465901 (2017);
         "P. Giannozzi et al., J. Chem. Phys. 152 154105 (2020);
          URL http://www.quantum-espresso.org", 
     in publications or presentations arising from this work. More details at
     http://www.quantum-espresso.org/quote

     Serial version
     0 MiB available memory on the printing compute node when the environment starts

     Waiting for input...
     Reading input from standard input

     Current dimensions of program PWSCF are:
     Max number of different atomic species (ntypx) = 10
     Max number of k-points (npk) =  40000
     Max angular momentum in pseudopotentials (lmaxx) =  4
     file Ga.rel-pbe-dn-rrkjus_psl.0.2.UPF: wavefunction(s)  4S 3D 3D renormalized


     G-vector sticks info
     --------------------
     sticks:   dense  smooth     PW     G-vecs:    dense   smooth      PW
     Sum        1663     847    253                45143    16049    2733

     Using Slab Decomposition



     bravais-lattice index     =            2
     lattice parameter (alat)  =      11.0254  a.u.
     unit-cell volume          =     335.0620 (a.u.)^3
     number of atoms/cell      =            2
     number of atomic types    =            2
     number of electrons       =        18.00
     number of Kohn-Sham states=           26
     kinetic-energy cutoff     =      50.0000  Ry
     charge density cutoff     =     400.0000  Ry
     scf convergence threshold =      1.0E-08
     mixing beta               =       0.3000
     number of iterations used =            8  plain     mixing
     Exchange-correlation= PBE
                           (   1   4   3   4   0   0   0)
     Non magnetic calculation with spin-orbit


     celldm(1)=  11.025417  celldm(2)=   0.000000  celldm(3)=   0.000000
     celldm(4)=   0.000000  celldm(5)=   0.000000  celldm(6)=   0.000000

     crystal axes: (cart. coord. in units of alat)
               a(1) = (  -0.500000   0.000000   0.500000 )  
               a(2) = (   0.000000   0.500000   0.500000 )  
               a(3) = (  -0.500000   0.500000   0.000000 )  

     reciprocal axes: (cart. coord. in units 2 pi/alat)
               b(1) = ( -1.000000 -1.000000  1.000000 )  
               b(2) = (  1.000000  1.000000  1.000000 )  
               b(3) = ( -1.000000  1.000000 -1.000000 )  


     PseudoPot. # 1 for As read from file:
     ../pseudopotential/As.rel-pbe-n-rrkjus_psl.0.2.UPF
     MD5 check sum: fd1d9cb43fef956eb1cdd0c60ce90062
     Pseudo is Ultrasoft + core correction, Zval =  5.0
     Generated using "atomic" code by A. Dal Corso  v.5.0.2 svn rev. 9415
     Using radial grid of 1209 points,  6 beta functions with: 
                l(1) =   0
                l(2) =   0
                l(3) =   1
                l(4) =   1
                l(5) =   1
                l(6) =   1
     Q(r) pseudized with 0 coefficients 


     PseudoPot. # 2 for Ga read from file:
     ../pseudopotential/Ga.rel-pbe-dn-rrkjus_psl.0.2.UPF
     MD5 check sum: b82f27152fdba9c8aaf7d704465ad383
     Pseudo is Ultrasoft + core correction, Zval = 13.0
     Generated using "atomic" code by A. Dal Corso  v.5.0.2 svn rev. 9415
     Using radial grid of 1205 points, 10 beta functions with: 
                l(1) =   0
                l(2) =   0
                l(3) =   1
                l(4) =   1
                l(5) =   1
                l(6) =   1
                l(7) =   2
                l(8) =   2
                l(9) =   2
               l(10) =   2
     Q(r) pseudized with 0 coefficients 


     atomic species   valence    mass     pseudopotential
        As             5.00    74.92160     As( 1.00)
        Ga            13.00    69.72000     Ga( 1.00)

     No symmetry found



   Cartesian axes

     site n.     atom                  positions (alat units)
         1           Ga  tau(   1) = (   0.0000000   0.0000000   0.0000000  )
         2           As  tau(   2) = (   0.2500000   0.2500000   0.2500000  )

     number of k points=    63  Gaussian smearing, width (Ry)=  0.0020
                       cart. coord. in units 2pi/alat
        k(    1) = (   0.0000000   0.0000000   0.0000000), wk =   0.0080000
        k(    2) = (  -0.2000000   0.2000000  -0.2000000), wk =   0.0160000
        k(    3) = (  -0.4000000   0.4000000  -0.4000000), wk =   0.0160000
        k(    4) = (   0.2000000   0.2000000   0.2000000), wk =   0.0160000
        k(    5) = (   0.0000000   0.4000000   0.0000000), wk =   0.0160000
        k(    6) = (  -0.2000000   0.6000000  -0.2000000), wk =   0.0160000
        k(    7) = (   0.6000000  -0.2000000   0.6000000), wk =   0.0160000
        k(    8) = (   0.4000000   0.0000000   0.4000000), wk =   0.0160000
        k(    9) = (   0.4000000   0.4000000   0.4000000), wk =   0.0160000
        k(   10) = (   0.2000000   0.6000000   0.2000000), wk =   0.0160000
        k(   11) = (   0.0000000   0.8000000   0.0000000), wk =   0.0160000
        k(   12) = (   0.8000000   0.0000000   0.8000000), wk =   0.0160000
        k(   13) = (   0.6000000   0.2000000   0.6000000), wk =   0.0160000
        k(   14) = (  -0.2000000  -0.2000000   0.2000000), wk =   0.0160000
        k(   15) = (  -0.4000000   0.0000000   0.0000000), wk =   0.0160000
        k(   16) = (  -0.6000000   0.2000000  -0.2000000), wk =   0.0160000
        k(   17) = (   0.2000000  -0.6000000   0.6000000), wk =   0.0160000
        k(   18) = (  -0.0000000  -0.4000000   0.4000000), wk =   0.0160000
        k(   19) = (   0.0000000   0.0000000   0.4000000), wk =   0.0160000
        k(   20) = (  -0.2000000   0.2000000   0.2000000), wk =   0.0160000
        k(   21) = (  -0.4000000   0.4000000   0.0000000), wk =   0.0160000
        k(   22) = (   0.4000000  -0.4000000   0.8000000), wk =   0.0160000
        k(   23) = (   0.2000000  -0.2000000   0.6000000), wk =   0.0160000
        k(   24) = (   0.2000000   0.2000000   0.6000000), wk =   0.0160000
        k(   25) = (   0.0000000   0.4000000   0.4000000), wk =   0.0160000
        k(   26) = (  -0.2000000   0.6000000   0.2000000), wk =   0.0160000
        k(   27) = (   0.6000000  -0.2000000   1.0000000), wk =   0.0160000
        k(   28) = (   0.4000000   0.0000000   0.8000000), wk =   0.0160000
        k(   29) = (  -0.6000000  -0.6000000  -0.2000000), wk =   0.0160000
        k(   30) = (  -0.8000000  -0.4000000  -0.4000000), wk =   0.0160000
        k(   31) = (  -1.0000000  -0.2000000  -0.6000000), wk =   0.0160000
        k(   32) = (  -0.2000000  -1.0000000   0.2000000), wk =   0.0160000
        k(   33) = (  -0.4000000  -0.8000000  -0.0000000), wk =   0.0160000
        k(   34) = (  -0.4000000  -0.4000000   0.0000000), wk =   0.0160000
        k(   35) = (  -0.6000000  -0.2000000  -0.2000000), wk =   0.0160000
        k(   36) = (  -0.8000000   0.0000000  -0.4000000), wk =   0.0160000
        k(   37) = (   0.0000000  -0.8000000   0.4000000), wk =   0.0160000
        k(   38) = (  -0.2000000  -0.6000000   0.2000000), wk =   0.0160000
        k(   39) = (  -0.4000000  -0.4000000   0.4000000), wk =   0.0160000
        k(   40) = (  -0.6000000  -0.2000000   0.2000000), wk =   0.0160000
        k(   41) = (  -0.8000000   0.0000000   0.0000000), wk =   0.0160000
        k(   42) = (   0.0000000  -0.8000000   0.8000000), wk =   0.0160000
        k(   43) = (  -0.2000000  -0.6000000   0.6000000), wk =   0.0160000
        k(   44) = (  -0.2000000  -0.2000000   0.6000000), wk =   0.0160000
        k(   45) = (  -0.4000000   0.0000000   0.4000000), wk =   0.0160000
        k(   46) = (  -0.6000000   0.2000000   0.2000000), wk =   0.0160000
        k(   47) = (   0.2000000  -0.6000000   1.0000000), wk =   0.0160000
        k(   48) = (  -0.0000000  -0.4000000   0.8000000), wk =   0.0160000
        k(   49) = (   0.0000000   0.0000000   0.8000000), wk =   0.0160000
        k(   50) = (  -0.2000000   0.2000000   0.6000000), wk =   0.0160000
        k(   51) = (  -0.4000000   0.4000000   0.4000000), wk =   0.0160000
        k(   52) = (   0.4000000  -0.4000000   1.2000000), wk =   0.0160000
        k(   53) = (   0.2000000  -0.2000000   1.0000000), wk =   0.0160000
        k(   54) = (  -0.8000000  -0.8000000   0.0000000), wk =   0.0160000
        k(   55) = (  -1.0000000  -0.6000000  -0.2000000), wk =   0.0160000
        k(   56) = (  -1.2000000  -0.4000000  -0.4000000), wk =   0.0160000
        k(   57) = (  -0.4000000  -1.2000000   0.4000000), wk =   0.0160000
        k(   58) = (  -0.6000000  -1.0000000   0.2000000), wk =   0.0160000
        k(   59) = (  -0.6000000  -0.6000000   0.2000000), wk =   0.0160000
        k(   60) = (  -0.8000000  -0.4000000   0.0000000), wk =   0.0160000
        k(   61) = (  -1.0000000  -0.2000000  -0.2000000), wk =   0.0160000
        k(   62) = (  -0.2000000  -1.0000000   0.6000000), wk =   0.0160000
        k(   63) = (  -0.4000000  -0.8000000   0.4000000), wk =   0.0160000

     Dense  grid:    45143 G-vectors     FFT dimensions: (  50,  50,  50)

     Smooth grid:    16049 G-vectors     FFT dimensions: (  36,  36,  36)

     Estimated max dynamical RAM per process >     616.45 MB

     Initial potential from superposition of free atoms

     starting charge      17.9971, renormalised to      18.0000
     Starting wfcs are   26 randomized atomic wfcs

     total cpu time spent up to now is        4.9 secs

     Self-consistent Calculation

     iteration #  1     ecut=    50.00 Ry     beta= 0.30
     Davidson diagonalization with overlap
     ethr =  1.00E-02,  avg # of iterations =  3.8

     Threshold (ethr) on eigenvalues was too large:
     Diagonalizing with lowered threshold

     Davidson diagonalization with overlap
     ethr =  2.53E-04,  avg # of iterations =  2.3

     total cpu time spent up to now is       26.6 secs

     total energy              =    -190.99887924 Ry
     estimated scf accuracy    <       0.04530194 Ry

     iteration #  2     ecut=    50.00 Ry     beta= 0.30
     Davidson diagonalization with overlap
     ethr =  2.52E-04,  avg # of iterations =  1.0

     total cpu time spent up to now is       36.6 secs

     total energy              =    -190.99971087 Ry
     estimated scf accuracy    <       0.01233587 Ry

     iteration #  3     ecut=    50.00 Ry     beta= 0.30
     Davidson diagonalization with overlap
     ethr =  6.85E-05,  avg # of iterations =  1.6

     total cpu time spent up to now is       46.1 secs

     total energy              =    -191.00035021 Ry
     estimated scf accuracy    <       0.00237715 Ry

     iteration #  4     ecut=    50.00 Ry     beta= 0.30
     Davidson diagonalization with overlap
     ethr =  1.32E-05,  avg # of iterations =  2.4

     total cpu time spent up to now is       55.8 secs

     total energy              =    -191.00045163 Ry
     estimated scf accuracy    <       0.00005114 Ry

     iteration #  5     ecut=    50.00 Ry     beta= 0.30
     Davidson diagonalization with overlap
     ethr =  2.84E-07,  avg # of iterations =  3.2

     total cpu time spent up to now is       69.2 secs

     total energy              =    -191.00046788 Ry
     estimated scf accuracy    <       0.00000672 Ry

     iteration #  6     ecut=    50.00 Ry     beta= 0.30
     Davidson diagonalization with overlap
     ethr =  3.73E-08,  avg # of iterations =  2.0

     total cpu time spent up to now is       80.6 secs

     total energy              =    -191.00046766 Ry
     estimated scf accuracy    <       0.00000390 Ry

     iteration #  7     ecut=    50.00 Ry     beta= 0.30
     Davidson diagonalization with overlap
     ethr =  2.17E-08,  avg # of iterations =  2.0

     total cpu time spent up to now is       91.5 secs

     total energy              =    -191.00046872 Ry
     estimated scf accuracy    <       0.00000028 Ry

     iteration #  8     ecut=    50.00 Ry     beta= 0.30
     Davidson diagonalization with overlap
     ethr =  1.56E-09,  avg # of iterations =  1.9

     total cpu time spent up to now is      101.3 secs

     total energy              =    -191.00046884 Ry
     estimated scf accuracy    <       0.00000017 Ry

     iteration #  9     ecut=    50.00 Ry     beta= 0.30
     Davidson diagonalization with overlap
     ethr =  9.40E-10,  avg # of iterations =  2.0

     total cpu time spent up to now is      112.2 secs

     total energy              =    -191.00046860 Ry
     estimated scf accuracy    <       0.00000042 Ry

     iteration # 10     ecut=    50.00 Ry     beta= 0.30
     Davidson diagonalization with overlap
     ethr =  9.40E-10,  avg # of iterations =  2.0

     total cpu time spent up to now is      123.1 secs

     End of self-consistent calculation

          k = 0.0000 0.0000 0.0000 (  1989 PWs)   bands (ev):

    -9.2191  -9.2191  -9.2191  -9.2191  -8.7848  -8.7848  -8.7462  -8.7462
    -8.7462  -8.7462  -6.3953  -6.3953   5.4818   5.4818   5.5369   5.5369
     5.8044   5.8044   5.8044   5.8044   9.2549   9.2549   9.4426   9.4426
     9.4426   9.4426

          k =-0.2000 0.2000-0.2000 (  2012 PWs)   bands (ev):

    -9.2233  -9.2233  -9.2199  -9.2159  -8.7877  -8.7877  -8.7528  -8.7528
    -8.7437  -8.7391  -6.0014  -6.0014   2.4589   2.4589   5.1545   5.1545
     5.3589   5.3619   6.9378   6.9378   9.9475   9.9475  10.0782  10.0802
    10.5132  10.5132

          k =-0.4000 0.4000-0.4000 (  2000 PWs)   bands (ev):

    -9.2306  -9.2306  -9.2173  -9.2148  -8.7914  -8.7914  -8.7607  -8.7607
    -8.7348  -8.7319  -5.1185  -5.1185  -0.0525  -0.0525   4.6562   4.6562
     4.8544   4.8560   6.5144   6.5144  10.2473  10.2473  10.3491  10.3502
    13.1855  13.1855

          k = 0.2000 0.2000 0.2000 (  2012 PWs)   bands (ev):

    -9.2233  -9.2233  -9.2199  -9.2159  -8.7877  -8.7877  -8.7528  -8.7528
    -8.7437  -8.7391  -6.0014  -6.0014   2.4589   2.4589   5.1545   5.1545
     5.3589   5.3619   6.9378   6.9378   9.9475   9.9475  10.0782  10.0802
    10.5132  10.5132

          k = 0.0000 0.4000 0.0000 (  2001 PWs)   bands (ev):

    -9.2285  -9.2285  -9.2134  -9.2134  -8.7907  -8.7907  -8.7466  -8.7466
    -8.7449  -8.7449  -5.8678  -5.8678   2.3893   2.3893   4.5000   4.5000
     4.6268   4.6268   7.9497   7.9497   8.6387   8.6387  11.2169  11.2169
    11.2409  11.2409

          k =-0.2000 0.6000-0.2000 (  1984 PWs)   bands (ev):

    -9.2443  -9.2282  -9.2117  -9.2068  -8.8102  -8.7815  -8.7535  -8.7504
    -8.7371  -8.7367  -5.1089  -5.1069   0.4411   0.4656   3.4880   3.5411
     4.0904   4.0984   7.9543   7.9836   9.5134   9.5552  11.3179  11.3557
    11.9116  11.9132

          k = 0.6000-0.2000 0.6000 (  1993 PWs)   bands (ev):

    -9.2505  -9.2279  -9.2105  -9.2042  -8.8186  -8.7715  -8.7631  -8.7521
    -8.7343  -8.7329  -4.6812  -4.6797  -0.3674  -0.3334   2.7965   2.8524
     4.2977   4.2997   7.9373   7.9708  10.3464  10.3771  11.4042  11.4047
    12.9693  12.9788

          k = 0.4000 0.0000 0.4000 (  2013 PWs)   bands (ev):

    -9.2394  -9.2266  -9.2123  -9.2099  -8.8068  -8.7770  -8.7600  -8.7511
    -8.7388  -8.7367  -5.4189  -5.4162   1.0380   1.0731   3.3205   3.3848
     5.0073   5.0085   8.0409   8.1044  10.3835  10.4306  10.5136  10.5141
    11.1284  11.1532

          k = 0.4000 0.4000 0.4000 (  2000 PWs)   bands (ev):

    -9.2306  -9.2306  -9.2173  -9.2148  -8.7914  -8.7914  -8.7607  -8.7607
    -8.7348  -8.7319  -5.1185  -5.1185  -0.0525  -0.0525   4.6562   4.6562
     4.8544   4.8560   6.5144   6.5144  10.2473  10.2473  10.3491  10.3502
    13.1855  13.1855

          k = 0.2000 0.6000 0.2000 (  1984 PWs)   bands (ev):

    -9.2443  -9.2282  -9.2117  -9.2068  -8.8102  -8.7815  -8.7535  -8.7504
    -8.7371  -8.7367  -5.1089  -5.1069   0.4411   0.4656   3.4880   3.5411
     4.0904   4.0984   7.9543   7.9836   9.5134   9.5552  11.3179  11.3557
    11.9116  11.9132

          k = 0.0000 0.8000 0.0000 (  1996 PWs)   bands (ev):

    -9.2427  -9.2427  -9.2052  -9.2052  -8.8013  -8.8013  -8.7444  -8.7444
    -8.7359  -8.7359  -4.6216  -4.6216  -0.2107  -0.2107   3.4268   3.4268
     3.5156   3.5156   7.2192   7.2192   7.8224   7.8224  14.2291  14.2291
    14.2911  14.2911

          k = 0.8000 0.0000 0.8000 (  2008 PWs)   bands (ev):

    -9.2560  -9.2328  -9.2064  -9.2001  -8.8226  -8.7818  -8.7470  -8.7450
    -8.7393  -8.7316  -4.2879  -4.2871  -0.6390  -0.6018   2.4449   2.4988
     3.5664   3.5701   7.5607   7.5671   9.2931   9.3419  13.5422  13.5802
    13.8336  13.8391

          k = 0.6000 0.2000 0.6000 (  1993 PWs)   bands (ev):

    -9.2505  -9.2279  -9.2105  -9.2042  -8.8186  -8.7715  -8.7631  -8.7521
    -8.7343  -8.7329  -4.6812  -4.6797  -0.3674  -0.3334   2.7965   2.8524
     4.2977   4.2997   7.9373   7.9708  10.3464  10.3771  11.4042  11.4047
    12.9693  12.9788

          k =-0.2000-0.2000 0.2000 (  2012 PWs)   bands (ev):

    -9.2233  -9.2233  -9.2199  -9.2159  -8.7877  -8.7877  -8.7528  -8.7528
    -8.7437  -8.7391  -6.0014  -6.0014   2.4589   2.4589   5.1545   5.1545
     5.3589   5.3619   6.9378   6.9378   9.9475   9.9475  10.0782  10.0802
    10.5132  10.5132

          k =-0.4000 0.0000 0.0000 (  2001 PWs)   bands (ev):

    -9.2285  -9.2285  -9.2134  -9.2134  -8.7907  -8.7907  -8.7466  -8.7466
    -8.7449  -8.7449  -5.8678  -5.8678   2.3893   2.3893   4.5000   4.5000
     4.6268   4.6268   7.9497   7.9497   8.6387   8.6387  11.2169  11.2169
    11.2409  11.2409

          k =-0.6000 0.2000-0.2000 (  1984 PWs)   bands (ev):

    -9.2443  -9.2282  -9.2117  -9.2068  -8.8102  -8.7815  -8.7535  -8.7504
    -8.7371  -8.7367  -5.1089  -5.1069   0.4411   0.4656   3.4880   3.5411
     4.0904   4.0984   7.9543   7.9836   9.5134   9.5552  11.3179  11.3557
    11.9116  11.9132

          k = 0.2000-0.6000 0.6000 (  1993 PWs)   bands (ev):

    -9.2505  -9.2279  -9.2105  -9.2042  -8.8186  -8.7715  -8.7631  -8.7521
    -8.7343  -8.7329  -4.6812  -4.6797  -0.3674  -0.3334   2.7965   2.8524
     4.2977   4.2997   7.9373   7.9708  10.3464  10.3771  11.4042  11.4047
    12.9693  12.9788

          k =-0.0000-0.4000 0.4000 (  2013 PWs)   bands (ev):

    -9.2394  -9.2266  -9.2123  -9.2099  -8.8068  -8.7770  -8.7600  -8.7511
    -8.7388  -8.7367  -5.4189  -5.4162   1.0380   1.0731   3.3205   3.3848
     5.0073   5.0085   8.0409   8.1044  10.3835  10.4306  10.5136  10.5141
    11.1284  11.1532

          k = 0.0000 0.0000 0.4000 (  2001 PWs)   bands (ev):

    -9.2285  -9.2285  -9.2134  -9.2134  -8.7907  -8.7907  -8.7466  -8.7466
    -8.7449  -8.7449  -5.8678  -5.8678   2.3893   2.3893   4.5000   4.5000
     4.6268   4.6268   7.9497   7.9497   8.6387   8.6387  11.2169  11.2169
    11.2409  11.2409

          k =-0.2000 0.2000 0.2000 (  2012 PWs)   bands (ev):

    -9.2233  -9.2233  -9.2199  -9.2159  -8.7877  -8.7877  -8.7528  -8.7528
    -8.7437  -8.7391  -6.0014  -6.0014   2.4589   2.4589   5.1545   5.1545
     5.3589   5.3619   6.9378   6.9378   9.9475   9.9475  10.0782  10.0802
    10.5132  10.5132

          k =-0.4000 0.4000 0.0000 (  2013 PWs)   bands (ev):

    -9.2394  -9.2266  -9.2123  -9.2099  -8.8068  -8.7770  -8.7600  -8.7511
    -8.7388  -8.7367  -5.4189  -5.4162   1.0380   1.0731   3.3205   3.3848
     5.0073   5.0085   8.0409   8.1044  10.3835  10.4306  10.5136  10.5141
    11.1284  11.1532

          k = 0.4000-0.4000 0.8000 (  1993 PWs)   bands (ev):

    -9.2505  -9.2279  -9.2105  -9.2042  -8.8186  -8.7715  -8.7631  -8.7521
    -8.7343  -8.7329  -4.6812  -4.6797  -0.3674  -0.3334   2.7965   2.8524
     4.2977   4.2997   7.9373   7.9708  10.3464  10.3771  11.4042  11.4047
    12.9693  12.9788

          k = 0.2000-0.2000 0.6000 (  1984 PWs)   bands (ev):

    -9.2443  -9.2282  -9.2117  -9.2068  -8.8102  -8.7815  -8.7535  -8.7504
    -8.7371  -8.7367  -5.1089  -5.1069   0.4411   0.4656   3.4880   3.5411
     4.0904   4.0984   7.9543   7.9836   9.5134   9.5552  11.3179  11.3557
    11.9116  11.9132

          k = 0.2000 0.2000 0.6000 (  1984 PWs)   bands (ev):

    -9.2443  -9.2282  -9.2117  -9.2068  -8.8102  -8.7815  -8.7535  -8.7504
    -8.7371  -8.7367  -5.1089  -5.1069   0.4411   0.4656   3.4880   3.5411
     4.0904   4.0984   7.9543   7.9836   9.5134   9.5552  11.3179  11.3557
    11.9116  11.9132

          k = 0.0000 0.4000 0.4000 (  2013 PWs)   bands (ev):

    -9.2394  -9.2266  -9.2123  -9.2099  -8.8068  -8.7770  -8.7600  -8.7511
    -8.7388  -8.7367  -5.4189  -5.4162   1.0380   1.0731   3.3205   3.3848
     5.0073   5.0085   8.0409   8.1044  10.3835  10.4306  10.5136  10.5141
    11.1284  11.1532

          k =-0.2000 0.6000 0.2000 (  1984 PWs)   bands (ev):

    -9.2443  -9.2282  -9.2117  -9.2068  -8.8102  -8.7815  -8.7535  -8.7504
    -8.7371  -8.7367  -5.1089  -5.1069   0.4411   0.4656   3.4880   3.5411
     4.0904   4.0984   7.9543   7.9836   9.5134   9.5552  11.3179  11.3557
    11.9116  11.9132

          k = 0.6000-0.2000 1.0000 (  1994 PWs)   bands (ev):

    -9.2566  -9.2288  -9.2066  -9.2009  -8.8263  -8.7716  -8.7553  -8.7474
    -8.7365  -8.7337  -4.4639  -4.4635  -0.3702  -0.3248   2.4825   2.5570
     3.3403   3.3816   9.2264   9.3679   9.7035   9.7475  10.7330  10.7931
    13.4185  13.4405

          k = 0.4000 0.0000 0.8000 (  1994 PWs)   bands (ev):

    -9.2566  -9.2288  -9.2066  -9.2009  -8.8263  -8.7716  -8.7553  -8.7474
    -8.7365  -8.7337  -4.4639  -4.4635  -0.3702  -0.3248   2.4825   2.5570
     3.3403   3.3816   9.2264   9.3679   9.7035   9.7475  10.7330  10.7931
    13.4185  13.4405

          k =-0.6000-0.6000-0.2000 (  1993 PWs)   bands (ev):

    -9.2505  -9.2279  -9.2105  -9.2042  -8.8186  -8.7715  -8.7631  -8.7521
    -8.7343  -8.7329  -4.6812  -4.6797  -0.3674  -0.3334   2.7965   2.8524
     4.2977   4.2997   7.9373   7.9708  10.3464  10.3771  11.4042  11.4047
    12.9693  12.9788

          k =-0.8000-0.4000-0.4000 (  1993 PWs)   bands (ev):

    -9.2505  -9.2279  -9.2105  -9.2042  -8.8186  -8.7715  -8.7631  -8.7521
    -8.7343  -8.7329  -4.6812  -4.6797  -0.3674  -0.3334   2.7965   2.8524
     4.2977   4.2997   7.9373   7.9708  10.3464  10.3771  11.4042  11.4047
    12.9693  12.9788

          k =-1.0000-0.2000-0.6000 (  1994 PWs)   bands (ev):

    -9.2566  -9.2288  -9.2066  -9.2009  -8.8263  -8.7716  -8.7553  -8.7474
    -8.7365  -8.7337  -4.4639  -4.4635  -0.3702  -0.3248   2.4825   2.5570
     3.3403   3.3816   9.2264   9.3679   9.7035   9.7475  10.7330  10.7931
    13.4185  13.4405

          k =-0.2000-1.0000 0.2000 (  2008 PWs)   bands (ev):

    -9.2560  -9.2328  -9.2064  -9.2001  -8.8226  -8.7818  -8.7470  -8.7450
    -8.7393  -8.7316  -4.2879  -4.2871  -0.6390  -0.6018   2.4449   2.4988
     3.5664   3.5701   7.5607   7.5671   9.2931   9.3419  13.5422  13.5802
    13.8336  13.8391

          k =-0.4000-0.8000-0.0000 (  1994 PWs)   bands (ev):

    -9.2566  -9.2288  -9.2066  -9.2009  -8.8263  -8.7716  -8.7553  -8.7474
    -8.7365  -8.7337  -4.4639  -4.4635  -0.3702  -0.3248   2.4825   2.5570
     3.3403   3.3816   9.2264   9.3679   9.7035   9.7475  10.7330  10.7931
    13.4185  13.4405

          k =-0.4000-0.4000 0.0000 (  2013 PWs)   bands (ev):

    -9.2394  -9.2266  -9.2123  -9.2099  -8.8068  -8.7770  -8.7600  -8.7511
    -8.7388  -8.7367  -5.4189  -5.4162   1.0380   1.0731   3.3205   3.3848
     5.0073   5.0085   8.0409   8.1044  10.3835  10.4306  10.5136  10.5141
    11.1284  11.1532

          k =-0.6000-0.2000-0.2000 (  1984 PWs)   bands (ev):

    -9.2443  -9.2282  -9.2117  -9.2068  -8.8102  -8.7815  -8.7535  -8.7504
    -8.7371  -8.7367  -5.1089  -5.1069   0.4411   0.4656   3.4880   3.5411
     4.0904   4.0984   7.9543   7.9836   9.5134   9.5552  11.3179  11.3557
    11.9116  11.9132

          k =-0.8000 0.0000-0.4000 (  1994 PWs)   bands (ev):

    -9.2566  -9.2288  -9.2066  -9.2009  -8.8263  -8.7716  -8.7553  -8.7474
    -8.7365  -8.7337  -4.4639  -4.4635  -0.3702  -0.3248   2.4825   2.5570
     3.3403   3.3816   9.2264   9.3679   9.7035   9.7475  10.7330  10.7931
    13.4185  13.4405

          k = 0.0000-0.8000 0.4000 (  1994 PWs)   bands (ev):

    -9.2566  -9.2288  -9.2066  -9.2009  -8.8263  -8.7716  -8.7553  -8.7474
    -8.7365  -8.7337  -4.4639  -4.4635  -0.3702  -0.3248   2.4825   2.5570
     3.3403   3.3816   9.2264   9.3679   9.7035   9.7475  10.7330  10.7931
    13.4185  13.4405

          k =-0.2000-0.6000 0.2000 (  1984 PWs)   bands (ev):

    -9.2443  -9.2282  -9.2117  -9.2068  -8.8102  -8.7815  -8.7535  -8.7504
    -8.7371  -8.7367  -5.1089  -5.1069   0.4411   0.4656   3.4880   3.5411
     4.0904   4.0984   7.9543   7.9836   9.5134   9.5552  11.3179  11.3557
    11.9116  11.9132

          k =-0.4000-0.4000 0.4000 (  2000 PWs)   bands (ev):

    -9.2306  -9.2306  -9.2173  -9.2148  -8.7914  -8.7914  -8.7607  -8.7607
    -8.7348  -8.7319  -5.1185  -5.1185  -0.0525  -0.0525   4.6562   4.6562
     4.8544   4.8560   6.5144   6.5144  10.2473  10.2473  10.3491  10.3502
    13.1855  13.1855

          k =-0.6000-0.2000 0.2000 (  1984 PWs)   bands (ev):

    -9.2443  -9.2282  -9.2117  -9.2068  -8.8102  -8.7815  -8.7535  -8.7504
    -8.7371  -8.7367  -5.1089  -5.1069   0.4411   0.4656   3.4880   3.5411
     4.0904   4.0984   7.9543   7.9836   9.5134   9.5552  11.3179  11.3557
    11.9116  11.9132

          k =-0.8000 0.0000 0.0000 (  1996 PWs)   bands (ev):

    -9.2427  -9.2427  -9.2052  -9.2052  -8.8013  -8.8013  -8.7444  -8.7444
    -8.7359  -8.7359  -4.6216  -4.6216  -0.2107  -0.2107   3.4268   3.4268
     3.5156   3.5156   7.2192   7.2192   7.8224   7.8224  14.2291  14.2291
    14.2911  14.2911

          k = 0.0000-0.8000 0.8000 (  2008 PWs)   bands (ev):

    -9.2560  -9.2328  -9.2064  -9.2001  -8.8226  -8.7818  -8.7470  -8.7450
    -8.7393  -8.7316  -4.2879  -4.2871  -0.6390  -0.6018   2.4449   2.4988
     3.5664   3.5701   7.5607   7.5671   9.2931   9.3419  13.5422  13.5802
    13.8336  13.8391

          k =-0.2000-0.6000 0.6000 (  1993 PWs)   bands (ev):

    -9.2505  -9.2279  -9.2105  -9.2042  -8.8186  -8.7715  -8.7631  -8.7521
    -8.7343  -8.7329  -4.6812  -4.6797  -0.3674  -0.3334   2.7965   2.8524
     4.2977   4.2997   7.9373   7.9708  10.3464  10.3771  11.4042  11.4047
    12.9693  12.9788

          k =-0.2000-0.2000 0.6000 (  1984 PWs)   bands (ev):

    -9.2443  -9.2282  -9.2117  -9.2068  -8.8102  -8.7815  -8.7535  -8.7504
    -8.7371  -8.7367  -5.1089  -5.1069   0.4411   0.4656   3.4880   3.5411
     4.0904   4.0984   7.9543   7.9836   9.5134   9.5552  11.3179  11.3557
    11.9116  11.9132

          k =-0.4000 0.0000 0.4000 (  2013 PWs)   bands (ev):

    -9.2394  -9.2266  -9.2123  -9.2099  -8.8068  -8.7770  -8.7600  -8.7511
    -8.7388  -8.7367  -5.4189  -5.4162   1.0380   1.0731   3.3205   3.3848
     5.0073   5.0085   8.0409   8.1044  10.3835  10.4306  10.5136  10.5141
    11.1284  11.1532

          k =-0.6000 0.2000 0.2000 (  1984 PWs)   bands (ev):

    -9.2443  -9.2282  -9.2117  -9.2068  -8.8102  -8.7815  -8.7535  -8.7504
    -8.7371  -8.7367  -5.1089  -5.1069   0.4411   0.4656   3.4880   3.5411
     4.0904   4.0984   7.9543   7.9836   9.5134   9.5552  11.3179  11.3557
    11.9116  11.9132

          k = 0.2000-0.6000 1.0000 (  1994 PWs)   bands (ev):

    -9.2566  -9.2288  -9.2066  -9.2009  -8.8263  -8.7716  -8.7553  -8.7474
    -8.7365  -8.7337  -4.4639  -4.4635  -0.3702  -0.3248   2.4825   2.5570
     3.3403   3.3816   9.2264   9.3679   9.7035   9.7475  10.7330  10.7931
    13.4185  13.4405

          k =-0.0000-0.4000 0.8000 (  1994 PWs)   bands (ev):

    -9.2566  -9.2288  -9.2066  -9.2009  -8.8263  -8.7716  -8.7553  -8.7474
    -8.7365  -8.7337  -4.4639  -4.4635  -0.3702  -0.3248   2.4825   2.5570
     3.3403   3.3816   9.2264   9.3679   9.7035   9.7475  10.7330  10.7931
    13.4185  13.4405

          k = 0.0000 0.0000 0.8000 (  1996 PWs)   bands (ev):

    -9.2427  -9.2427  -9.2052  -9.2052  -8.8013  -8.8013  -8.7444  -8.7444
    -8.7359  -8.7359  -4.6216  -4.6216  -0.2107  -0.2107   3.4268   3.4268
     3.5156   3.5156   7.2192   7.2192   7.8224   7.8224  14.2291  14.2291
    14.2911  14.2911

          k =-0.2000 0.2000 0.6000 (  1984 PWs)   bands (ev):

    -9.2443  -9.2282  -9.2117  -9.2068  -8.8102  -8.7815  -8.7535  -8.7504
    -8.7371  -8.7367  -5.1089  -5.1069   0.4411   0.4656   3.4880   3.5411
     4.0904   4.0984   7.9543   7.9836   9.5134   9.5552  11.3179  11.3557
    11.9116  11.9132

          k =-0.4000 0.4000 0.4000 (  2000 PWs)   bands (ev):

    -9.2306  -9.2306  -9.2173  -9.2148  -8.7914  -8.7914  -8.7607  -8.7607
    -8.7348  -8.7319  -5.1185  -5.1185  -0.0525  -0.0525   4.6562   4.6562
     4.8544   4.8560   6.5144   6.5144  10.2473  10.2473  10.3491  10.3502
    13.1855  13.1855

          k = 0.4000-0.4000 1.2000 (  1993 PWs)   bands (ev):

    -9.2505  -9.2279  -9.2105  -9.2042  -8.8186  -8.7715  -8.7631  -8.7521
    -8.7343  -8.7329  -4.6812  -4.6797  -0.3674  -0.3334   2.7965   2.8524
     4.2977   4.2997   7.9373   7.9708  10.3464  10.3771  11.4042  11.4047
    12.9693  12.9788

          k = 0.2000-0.2000 1.0000 (  2008 PWs)   bands (ev):

    -9.2560  -9.2328  -9.2064  -9.2001  -8.8226  -8.7818  -8.7470  -8.7450
    -8.7393  -8.7316  -4.2879  -4.2871  -0.6390  -0.6018   2.4449   2.4988
     3.5664   3.5701   7.5607   7.5671   9.2931   9.3419  13.5422  13.5802
    13.8336  13.8391

          k =-0.8000-0.8000 0.0000 (  2008 PWs)   bands (ev):

    -9.2560  -9.2328  -9.2064  -9.2001  -8.8226  -8.7818  -8.7470  -8.7450
    -8.7393  -8.7316  -4.2879  -4.2871  -0.6390  -0.6018   2.4449   2.4988
     3.5664   3.5701   7.5607   7.5671   9.2931   9.3419  13.5422  13.5802
    13.8336  13.8391

          k =-1.0000-0.6000-0.2000 (  1994 PWs)   bands (ev):

    -9.2566  -9.2288  -9.2066  -9.2009  -8.8263  -8.7716  -8.7553  -8.7474
    -8.7365  -8.7337  -4.4639  -4.4635  -0.3702  -0.3248   2.4825   2.5570
     3.3403   3.3816   9.2264   9.3679   9.7035   9.7475  10.7330  10.7931
    13.4185  13.4405

          k =-1.2000-0.4000-0.4000 (  1993 PWs)   bands (ev):

    -9.2505  -9.2279  -9.2105  -9.2042  -8.8186  -8.7715  -8.7631  -8.7521
    -8.7343  -8.7329  -4.6812  -4.6797  -0.3674  -0.3334   2.7965   2.8524
     4.2977   4.2997   7.9373   7.9708  10.3464  10.3771  11.4042  11.4047
    12.9693  12.9788

          k =-0.4000-1.2000 0.4000 (  1993 PWs)   bands (ev):

    -9.2505  -9.2279  -9.2105  -9.2042  -8.8186  -8.7715  -8.7631  -8.7521
    -8.7343  -8.7329  -4.6812  -4.6797  -0.3674  -0.3334   2.7965   2.8524
     4.2977   4.2997   7.9373   7.9708  10.3464  10.3771  11.4042  11.4047
    12.9693  12.9788

          k =-0.6000-1.0000 0.2000 (  1994 PWs)   bands (ev):

    -9.2566  -9.2288  -9.2066  -9.2009  -8.8263  -8.7716  -8.7553  -8.7474
    -8.7365  -8.7337  -4.4639  -4.4635  -0.3702  -0.3248   2.4825   2.5570
     3.3403   3.3816   9.2264   9.3679   9.7035   9.7475  10.7330  10.7931
    13.4185  13.4405

          k =-0.6000-0.6000 0.2000 (  1993 PWs)   bands (ev):

    -9.2505  -9.2279  -9.2105  -9.2042  -8.8186  -8.7715  -8.7631  -8.7521
    -8.7343  -8.7329  -4.6812  -4.6797  -0.3674  -0.3334   2.7965   2.8524
     4.2977   4.2997   7.9373   7.9708  10.3464  10.3771  11.4042  11.4047
    12.9693  12.9788

          k =-0.8000-0.4000 0.0000 (  1994 PWs)   bands (ev):

    -9.2566  -9.2288  -9.2066  -9.2009  -8.8263  -8.7716  -8.7553  -8.7474
    -8.7365  -8.7337  -4.4639  -4.4635  -0.3702  -0.3248   2.4825   2.5570
     3.3403   3.3816   9.2264   9.3679   9.7035   9.7475  10.7330  10.7931
    13.4185  13.4405

          k =-1.0000-0.2000-0.2000 (  2008 PWs)   bands (ev):

    -9.2560  -9.2328  -9.2064  -9.2001  -8.8226  -8.7818  -8.7470  -8.7450
    -8.7393  -8.7316  -4.2879  -4.2871  -0.6390  -0.6018   2.4449   2.4988
     3.5664   3.5701   7.5607   7.5671   9.2931   9.3419  13.5422  13.5802
    13.8336  13.8391

          k =-0.2000-1.0000 0.6000 (  1994 PWs)   bands (ev):

    -9.2566  -9.2288  -9.2066  -9.2009  -8.8263  -8.7716  -8.7553  -8.7474
    -8.7365  -8.7337  -4.4639  -4.4635  -0.3702  -0.3248   2.4825   2.5570
     3.3403   3.3816   9.2264   9.3679   9.7035   9.7475  10.7330  10.7931
    13.4185  13.4405

          k =-0.4000-0.8000 0.4000 (  1993 PWs)   bands (ev):

    -9.2505  -9.2279  -9.2105  -9.2042  -8.8186  -8.7715  -8.7631  -8.7521
    -8.7343  -8.7329  -4.6812  -4.6797  -0.3674  -0.3334   2.7965   2.8524
     4.2977   4.2997   7.9373   7.9708  10.3464  10.3771  11.4042  11.4047
    12.9693  12.9788

     the Fermi energy is     5.8044 ev

!    total energy              =    -191.00046868 Ry
     estimated scf accuracy    <          2.8E-09 Ry
     smearing contrib. (-TS)   =      -0.00001805 Ry
     internal energy E=F+TS    =    -191.00045063 Ry

     The total energy is F=E-TS. E is the sum of the following terms:
     one-electron contribution =    -116.42612265 Ry
     hartree contribution      =      73.37682908 Ry
     xc contribution           =     -57.82169613 Ry
     ewald contribution        =     -90.12946093 Ry

     convergence has been achieved in  10 iterations

     Writing all to output data dir ./GaAs.save/

     init_run     :     17.06s CPU      4.52s WALL (       1 calls)
     electrons    :    520.68s CPU    118.19s WALL (       1 calls)

     Called by init_run:
     wfcinit      :     15.64s CPU      3.67s WALL (       1 calls)
     potinit      :      0.04s CPU      0.05s WALL (       1 calls)
     hinit0       :      0.61s CPU      0.61s WALL (       1 calls)

     Called by electrons:
     c_bands      :    421.32s CPU     95.55s WALL (      11 calls)
     sum_band     :     88.61s CPU     19.94s WALL (      11 calls)
     v_of_rho     :      1.53s CPU      0.50s WALL (      11 calls)
     newd         :      8.93s CPU      2.07s WALL (      11 calls)
     mix_rho      :      0.61s CPU      0.20s WALL (      11 calls)

     Called by c_bands:
     init_us_2    :      6.37s CPU      0.90s WALL (    1449 calls)
     init_us_2:cp :      6.37s CPU      0.90s WALL (    1449 calls)
     cegterg      :    385.07s CPU     90.24s WALL (     693 calls)

     Called by *egterg:
     cdiaghg      :      9.76s CPU      1.37s WALL (    2161 calls)
     h_psi        :    322.98s CPU     81.73s WALL (    2287 calls)
     s_psi        :      6.98s CPU      1.52s WALL (    2287 calls)
     g_psi        :      1.68s CPU      0.31s WALL (    1531 calls)

     Called by h_psi:
     h_psi:calbec :      7.10s CPU      2.12s WALL (    2287 calls)
     vloc_psi     :    308.70s CPU     77.88s WALL (    2287 calls)
     add_vuspsi   :      5.49s CPU      1.41s WALL (    2287 calls)

     General routines
     calbec       :      9.55s CPU      2.92s WALL (    2980 calls)
     fft          :      1.47s CPU      0.46s WALL (     265 calls)
     ffts         :      0.27s CPU      0.05s WALL (      88 calls)
     fftw         :    299.27s CPU     73.83s WALL (  211776 calls)
     interpolate  :      0.38s CPU      0.12s WALL (      44 calls)


     PWSCF        :   8m59.47s CPU   2m 3.22s WALL


   This run was terminated on:  18:53:58  12May2024            

=------------------------------------------------------------------------------=
   JOB DONE.
=------------------------------------------------------------------------------=
