
     Program PWSCF v.7.2 starts on 12May2024 at 18:47:40 

     This program is part of the open-source Quantum ESPRESSO suite
     for quantum simulation of materials; please cite
         "P. Giannozzi et al., J. Phys.:Condens. Matter 21 395502 (2009);
         "P. Giannozzi et al., J. Phys.:Condens. Matter 29 465901 (2017);
         "P. Giannozzi et al., J. Chem. Phys. 152 154105 (2020);
          URL http://www.quantum-espresso.org", 
     in publications or presentations arising from this work. More details at
     http://www.quantum-espresso.org/quote

     Serial version
     0 MiB available memory on the printing compute node when the environment starts

     Waiting for input...
     Reading input from standard input

     Current dimensions of program PWSCF are:
     Max number of different atomic species (ntypx) = 10
     Max number of k-points (npk) =  40000
     Max angular momentum in pseudopotentials (lmaxx) =  4
     file Ga.rel-pbe-dn-rrkjus_psl.0.2.UPF: wavefunction(s)  4S 3D 3D renormalized


     G-vector sticks info
     --------------------
     sticks:   dense  smooth     PW     G-vecs:    dense   smooth      PW
     Sum        1627     805    253                42735    15089    2637

     Using Slab Decomposition



     bravais-lattice index     =            2
     lattice parameter (alat)  =      10.8134  a.u.
     unit-cell volume          =     316.1008 (a.u.)^3
     number of atoms/cell      =            2
     number of atomic types    =            2
     number of electrons       =        18.00
     number of Kohn-Sham states=           26
     kinetic-energy cutoff     =      50.0000  Ry
     charge density cutoff     =     400.0000  Ry
     scf convergence threshold =      1.0E-08
     mixing beta               =       0.3000
     number of iterations used =            8  plain     mixing
     Exchange-correlation= PBE
                           (   1   4   3   4   0   0   0)
     Non magnetic calculation with spin-orbit


     celldm(1)=  10.813390  celldm(2)=   0.000000  celldm(3)=   0.000000
     celldm(4)=   0.000000  celldm(5)=   0.000000  celldm(6)=   0.000000

     crystal axes: (cart. coord. in units of alat)
               a(1) = (  -0.500000   0.000000   0.500000 )  
               a(2) = (   0.000000   0.500000   0.500000 )  
               a(3) = (  -0.500000   0.500000   0.000000 )  

     reciprocal axes: (cart. coord. in units 2 pi/alat)
               b(1) = ( -1.000000 -1.000000  1.000000 )  
               b(2) = (  1.000000  1.000000  1.000000 )  
               b(3) = ( -1.000000  1.000000 -1.000000 )  


     PseudoPot. # 1 for As read from file:
     ../pseudopotential/As.rel-pbe-n-rrkjus_psl.0.2.UPF
     MD5 check sum: fd1d9cb43fef956eb1cdd0c60ce90062
     Pseudo is Ultrasoft + core correction, Zval =  5.0
     Generated using "atomic" code by A. Dal Corso  v.5.0.2 svn rev. 9415
     Using radial grid of 1209 points,  6 beta functions with: 
                l(1) =   0
                l(2) =   0
                l(3) =   1
                l(4) =   1
                l(5) =   1
                l(6) =   1
     Q(r) pseudized with 0 coefficients 


     PseudoPot. # 2 for Ga read from file:
     ../pseudopotential/Ga.rel-pbe-dn-rrkjus_psl.0.2.UPF
     MD5 check sum: b82f27152fdba9c8aaf7d704465ad383
     Pseudo is Ultrasoft + core correction, Zval = 13.0
     Generated using "atomic" code by A. Dal Corso  v.5.0.2 svn rev. 9415
     Using radial grid of 1205 points, 10 beta functions with: 
                l(1) =   0
                l(2) =   0
                l(3) =   1
                l(4) =   1
                l(5) =   1
                l(6) =   1
                l(7) =   2
                l(8) =   2
                l(9) =   2
               l(10) =   2
     Q(r) pseudized with 0 coefficients 


     atomic species   valence    mass     pseudopotential
        As             5.00    74.92160     As( 1.00)
        Ga            13.00    69.72000     Ga( 1.00)

     No symmetry found



   Cartesian axes

     site n.     atom                  positions (alat units)
         1           Ga  tau(   1) = (   0.0000000   0.0000000   0.0000000  )
         2           As  tau(   2) = (   0.2500000   0.2500000   0.2500000  )

     number of k points=    63  Gaussian smearing, width (Ry)=  0.0020
                       cart. coord. in units 2pi/alat
        k(    1) = (   0.0000000   0.0000000   0.0000000), wk =   0.0080000
        k(    2) = (  -0.2000000   0.2000000  -0.2000000), wk =   0.0160000
        k(    3) = (  -0.4000000   0.4000000  -0.4000000), wk =   0.0160000
        k(    4) = (   0.2000000   0.2000000   0.2000000), wk =   0.0160000
        k(    5) = (   0.0000000   0.4000000   0.0000000), wk =   0.0160000
        k(    6) = (  -0.2000000   0.6000000  -0.2000000), wk =   0.0160000
        k(    7) = (   0.6000000  -0.2000000   0.6000000), wk =   0.0160000
        k(    8) = (   0.4000000   0.0000000   0.4000000), wk =   0.0160000
        k(    9) = (   0.4000000   0.4000000   0.4000000), wk =   0.0160000
        k(   10) = (   0.2000000   0.6000000   0.2000000), wk =   0.0160000
        k(   11) = (   0.0000000   0.8000000   0.0000000), wk =   0.0160000
        k(   12) = (   0.8000000   0.0000000   0.8000000), wk =   0.0160000
        k(   13) = (   0.6000000   0.2000000   0.6000000), wk =   0.0160000
        k(   14) = (  -0.2000000  -0.2000000   0.2000000), wk =   0.0160000
        k(   15) = (  -0.4000000   0.0000000   0.0000000), wk =   0.0160000
        k(   16) = (  -0.6000000   0.2000000  -0.2000000), wk =   0.0160000
        k(   17) = (   0.2000000  -0.6000000   0.6000000), wk =   0.0160000
        k(   18) = (  -0.0000000  -0.4000000   0.4000000), wk =   0.0160000
        k(   19) = (   0.0000000   0.0000000   0.4000000), wk =   0.0160000
        k(   20) = (  -0.2000000   0.2000000   0.2000000), wk =   0.0160000
        k(   21) = (  -0.4000000   0.4000000   0.0000000), wk =   0.0160000
        k(   22) = (   0.4000000  -0.4000000   0.8000000), wk =   0.0160000
        k(   23) = (   0.2000000  -0.2000000   0.6000000), wk =   0.0160000
        k(   24) = (   0.2000000   0.2000000   0.6000000), wk =   0.0160000
        k(   25) = (   0.0000000   0.4000000   0.4000000), wk =   0.0160000
        k(   26) = (  -0.2000000   0.6000000   0.2000000), wk =   0.0160000
        k(   27) = (   0.6000000  -0.2000000   1.0000000), wk =   0.0160000
        k(   28) = (   0.4000000   0.0000000   0.8000000), wk =   0.0160000
        k(   29) = (  -0.6000000  -0.6000000  -0.2000000), wk =   0.0160000
        k(   30) = (  -0.8000000  -0.4000000  -0.4000000), wk =   0.0160000
        k(   31) = (  -1.0000000  -0.2000000  -0.6000000), wk =   0.0160000
        k(   32) = (  -0.2000000  -1.0000000   0.2000000), wk =   0.0160000
        k(   33) = (  -0.4000000  -0.8000000  -0.0000000), wk =   0.0160000
        k(   34) = (  -0.4000000  -0.4000000   0.0000000), wk =   0.0160000
        k(   35) = (  -0.6000000  -0.2000000  -0.2000000), wk =   0.0160000
        k(   36) = (  -0.8000000   0.0000000  -0.4000000), wk =   0.0160000
        k(   37) = (   0.0000000  -0.8000000   0.4000000), wk =   0.0160000
        k(   38) = (  -0.2000000  -0.6000000   0.2000000), wk =   0.0160000
        k(   39) = (  -0.4000000  -0.4000000   0.4000000), wk =   0.0160000
        k(   40) = (  -0.6000000  -0.2000000   0.2000000), wk =   0.0160000
        k(   41) = (  -0.8000000   0.0000000   0.0000000), wk =   0.0160000
        k(   42) = (   0.0000000  -0.8000000   0.8000000), wk =   0.0160000
        k(   43) = (  -0.2000000  -0.6000000   0.6000000), wk =   0.0160000
        k(   44) = (  -0.2000000  -0.2000000   0.6000000), wk =   0.0160000
        k(   45) = (  -0.4000000   0.0000000   0.4000000), wk =   0.0160000
        k(   46) = (  -0.6000000   0.2000000   0.2000000), wk =   0.0160000
        k(   47) = (   0.2000000  -0.6000000   1.0000000), wk =   0.0160000
        k(   48) = (  -0.0000000  -0.4000000   0.8000000), wk =   0.0160000
        k(   49) = (   0.0000000   0.0000000   0.8000000), wk =   0.0160000
        k(   50) = (  -0.2000000   0.2000000   0.6000000), wk =   0.0160000
        k(   51) = (  -0.4000000   0.4000000   0.4000000), wk =   0.0160000
        k(   52) = (   0.4000000  -0.4000000   1.2000000), wk =   0.0160000
        k(   53) = (   0.2000000  -0.2000000   1.0000000), wk =   0.0160000
        k(   54) = (  -0.8000000  -0.8000000   0.0000000), wk =   0.0160000
        k(   55) = (  -1.0000000  -0.6000000  -0.2000000), wk =   0.0160000
        k(   56) = (  -1.2000000  -0.4000000  -0.4000000), wk =   0.0160000
        k(   57) = (  -0.4000000  -1.2000000   0.4000000), wk =   0.0160000
        k(   58) = (  -0.6000000  -1.0000000   0.2000000), wk =   0.0160000
        k(   59) = (  -0.6000000  -0.6000000   0.2000000), wk =   0.0160000
        k(   60) = (  -0.8000000  -0.4000000   0.0000000), wk =   0.0160000
        k(   61) = (  -1.0000000  -0.2000000  -0.2000000), wk =   0.0160000
        k(   62) = (  -0.2000000  -1.0000000   0.6000000), wk =   0.0160000
        k(   63) = (  -0.4000000  -0.8000000   0.4000000), wk =   0.0160000

     Dense  grid:    42735 G-vectors     FFT dimensions: (  50,  50,  50)

     Smooth grid:    15089 G-vectors     FFT dimensions: (  36,  36,  36)

     Estimated max dynamical RAM per process >     584.91 MB

     Initial potential from superposition of free atoms

     starting charge      17.9971, renormalised to      18.0000
     Starting wfcs are   26 randomized atomic wfcs

     total cpu time spent up to now is        5.2 secs

     Self-consistent Calculation

     iteration #  1     ecut=    50.00 Ry     beta= 0.30
     Davidson diagonalization with overlap
     ethr =  1.00E-02,  avg # of iterations =  4.0

     Threshold (ethr) on eigenvalues was too large:
     Diagonalizing with lowered threshold

     Davidson diagonalization with overlap
     ethr =  2.67E-04,  avg # of iterations =  2.4

     total cpu time spent up to now is       26.7 secs

     total energy              =    -190.99985325 Ry
     estimated scf accuracy    <       0.04799421 Ry

     iteration #  2     ecut=    50.00 Ry     beta= 0.30
     Davidson diagonalization with overlap
     ethr =  2.67E-04,  avg # of iterations =  1.2

     total cpu time spent up to now is       35.9 secs

     total energy              =    -191.00029335 Ry
     estimated scf accuracy    <       0.01344089 Ry

     iteration #  3     ecut=    50.00 Ry     beta= 0.30
     Davidson diagonalization with overlap
     ethr =  7.47E-05,  avg # of iterations =  1.7

     total cpu time spent up to now is       45.2 secs

     total energy              =    -191.00101667 Ry
     estimated scf accuracy    <       0.00239384 Ry

     iteration #  4     ecut=    50.00 Ry     beta= 0.30
     Davidson diagonalization with overlap
     ethr =  1.33E-05,  avg # of iterations =  2.2

     total cpu time spent up to now is       54.8 secs

     total energy              =    -191.00112352 Ry
     estimated scf accuracy    <       0.00005639 Ry

     iteration #  5     ecut=    50.00 Ry     beta= 0.30
     Davidson diagonalization with overlap
     ethr =  3.13E-07,  avg # of iterations =  2.7

     total cpu time spent up to now is       68.8 secs

     total energy              =    -191.00114620 Ry
     estimated scf accuracy    <       0.00001745 Ry

     iteration #  6     ecut=    50.00 Ry     beta= 0.30
     Davidson diagonalization with overlap
     ethr =  9.70E-08,  avg # of iterations =  1.1

     total cpu time spent up to now is       78.0 secs

     total energy              =    -191.00114435 Ry
     estimated scf accuracy    <       0.00000491 Ry

     iteration #  7     ecut=    50.00 Ry     beta= 0.30
     Davidson diagonalization with overlap
     ethr =  2.73E-08,  avg # of iterations =  2.0

     total cpu time spent up to now is       89.3 secs

     total energy              =    -191.00114635 Ry
     estimated scf accuracy    <       0.00000090 Ry

     iteration #  8     ecut=    50.00 Ry     beta= 0.30
     Davidson diagonalization with overlap
     ethr =  5.01E-09,  avg # of iterations =  1.0

     total cpu time spent up to now is       98.4 secs

     total energy              =    -191.00114611 Ry
     estimated scf accuracy    <       0.00000050 Ry

     iteration #  9     ecut=    50.00 Ry     beta= 0.30
     Davidson diagonalization with overlap
     ethr =  2.79E-09,  avg # of iterations =  2.0

     total cpu time spent up to now is      110.0 secs

     total energy              =    -191.00114615 Ry
     estimated scf accuracy    <       0.00000004 Ry

     iteration # 10     ecut=    50.00 Ry     beta= 0.30
     Davidson diagonalization with overlap
     ethr =  2.08E-10,  avg # of iterations =  2.0

     total cpu time spent up to now is      120.9 secs

     End of self-consistent calculation

          k = 0.0000 0.0000 0.0000 (  1917 PWs)   bands (ev):

    -8.6435  -8.6435  -8.6435  -8.6435  -8.2144  -8.2144  -8.1675  -8.1675
    -8.1675  -8.1675  -6.1138  -6.1138   6.1424   6.1424   6.4723   6.4723
     6.4723   6.4723   6.6185   6.6185   9.9364   9.9364  10.1277  10.1277
    10.1277  10.1277

          k =-0.2000 0.2000-0.2000 (  1901 PWs)   bands (ev):

    -8.6494  -8.6494  -8.6443  -8.6393  -8.2183  -8.2183  -8.1757  -8.1757
    -8.1645  -8.1588  -5.6831  -5.6831   3.0864   3.0864   5.7780   5.7780
     5.9860   5.9894   7.8086   7.8086  10.6735  10.6735  10.8061  10.8084
    11.3907  11.3907

          k =-0.4000 0.4000-0.4000 (  1889 PWs)   bands (ev):

    -8.6599  -8.6599  -8.6411  -8.6380  -8.2225  -8.2225  -8.1855  -8.1855
    -8.1536  -8.1502  -4.7020  -4.7020   0.3677   0.3677   5.2419   5.2419
     5.4447   5.4466   7.3325   7.3325  10.9496  10.9496  11.0496  11.0508
    14.0432  14.0432

          k = 0.2000 0.2000 0.2000 (  1901 PWs)   bands (ev):

    -8.6494  -8.6494  -8.6443  -8.6393  -8.2183  -8.2183  -8.1757  -8.1757
    -8.1645  -8.1588  -5.6831  -5.6831   3.0864   3.0864   5.7780   5.7780
     5.9860   5.9894   7.8086   7.8086  10.6735  10.6735  10.8061  10.8084
    11.3907  11.3907

          k = 0.0000 0.4000 0.0000 (  1900 PWs)   bands (ev):

    -8.6559  -8.6559  -8.6364  -8.6364  -8.2218  -8.2218  -8.1679  -8.1679
    -8.1663  -8.1663  -5.5380  -5.5380   3.0742   3.0742   5.0634   5.0634
     5.1886   5.1886   8.6570   8.6570   9.5143   9.5143  12.0429  12.0429
    12.0648  12.0648

          k =-0.2000 0.6000-0.2000 (  1884 PWs)   bands (ev):

    -8.6766  -8.6560  -8.6343  -8.6282  -8.2456  -8.2099  -8.1762  -8.1732
    -8.1567  -8.1559  -4.6993  -4.6965   0.9526   0.9774   3.9923   4.0415
     4.6203   4.6277   8.6920   8.7119  10.3419  10.3928  12.0498  12.0903
    12.7390  12.7410

          k = 0.6000-0.2000 0.6000 (  1885 PWs)   bands (ev):

    -8.6845  -8.6556  -8.6327  -8.6251  -8.2560  -8.1978  -8.1879  -8.1752
    -8.1532  -8.1514  -4.2106  -4.2082   0.0504   0.0849   3.2553   3.3073
     4.8468   4.8482   8.7189   8.7456  11.1178  11.1504  12.1810  12.1815
    13.9198  13.9374

          k = 0.4000 0.0000 0.4000 (  1895 PWs)   bands (ev):

    -8.6704  -8.6535  -8.6348  -8.6321  -8.2423  -8.2048  -8.1842  -8.1738
    -8.1586  -8.1560  -5.0430  -5.0391   1.5978   1.6343   3.7920   3.8533
     5.6154   5.6156   8.9258   8.9835  11.1832  11.2273  11.2672  11.2682
    11.9132  11.9383

          k = 0.4000 0.4000 0.4000 (  1889 PWs)   bands (ev):

    -8.6599  -8.6599  -8.6411  -8.6380  -8.2225  -8.2225  -8.1855  -8.1855
    -8.1536  -8.1502  -4.7020  -4.7020   0.3677   0.3677   5.2419   5.2419
     5.4447   5.4466   7.3325   7.3325  10.9496  10.9496  11.0496  11.0508
    14.0432  14.0432

          k = 0.2000 0.6000 0.2000 (  1884 PWs)   bands (ev):

    -8.6766  -8.6560  -8.6343  -8.6282  -8.2456  -8.2099  -8.1762  -8.1732
    -8.1567  -8.1559  -4.6993  -4.6965   0.9526   0.9774   3.9923   4.0415
     4.6203   4.6277   8.6920   8.7119  10.3419  10.3928  12.0498  12.0903
    12.7390  12.7410

          k = 0.0000 0.8000 0.0000 (  1884 PWs)   bands (ev):

    -8.6747  -8.6747  -8.6262  -8.6262  -8.2329  -8.2329  -8.1661  -8.1661
    -8.1547  -8.1547  -4.1553  -4.1553   0.2653   0.2653   3.9119   3.9119
     3.9996   3.9996   7.8174   7.8174   8.4712   8.4712  15.2536  15.2536
    15.3213  15.3213

          k = 0.8000 0.0000 0.8000 (  1876 PWs)   bands (ev):

    -8.6911  -8.6621  -8.6277  -8.6197  -8.2596  -8.2092  -8.1693  -8.1657
    -8.1597  -8.1495  -3.7646  -3.7639  -0.2174  -0.1779   2.8439   2.8954
     4.0589   4.0620   8.1927   8.1952  10.0401  10.0861  14.5402  14.5908
    14.8049  14.8102

          k = 0.6000 0.2000 0.6000 (  1885 PWs)   bands (ev):

    -8.6845  -8.6556  -8.6327  -8.6251  -8.2560  -8.1978  -8.1879  -8.1752
    -8.1532  -8.1514  -4.2106  -4.2082   0.0504   0.0849   3.2553   3.3073
     4.8468   4.8482   8.7189   8.7456  11.1178  11.1504  12.1810  12.1815
    13.9198  13.9374

          k =-0.2000-0.2000 0.2000 (  1901 PWs)   bands (ev):

    -8.6494  -8.6494  -8.6443  -8.6393  -8.2183  -8.2183  -8.1757  -8.1757
    -8.1645  -8.1588  -5.6831  -5.6831   3.0864   3.0864   5.7780   5.7780
     5.9860   5.9894   7.8086   7.8086  10.6735  10.6735  10.8061  10.8084
    11.3907  11.3907

          k =-0.4000 0.0000 0.0000 (  1900 PWs)   bands (ev):

    -8.6559  -8.6559  -8.6364  -8.6364  -8.2218  -8.2218  -8.1679  -8.1679
    -8.1663  -8.1663  -5.5380  -5.5380   3.0742   3.0742   5.0634   5.0634
     5.1886   5.1886   8.6570   8.6570   9.5143   9.5143  12.0429  12.0429
    12.0648  12.0648

          k =-0.6000 0.2000-0.2000 (  1884 PWs)   bands (ev):

    -8.6766  -8.6560  -8.6343  -8.6282  -8.2456  -8.2099  -8.1762  -8.1732
    -8.1567  -8.1559  -4.6993  -4.6965   0.9526   0.9774   3.9923   4.0415
     4.6203   4.6277   8.6920   8.7119  10.3419  10.3928  12.0498  12.0903
    12.7390  12.7410

          k = 0.2000-0.6000 0.6000 (  1885 PWs)   bands (ev):

    -8.6845  -8.6556  -8.6327  -8.6251  -8.2560  -8.1978  -8.1879  -8.1752
    -8.1532  -8.1514  -4.2106  -4.2082   0.0504   0.0849   3.2553   3.3073
     4.8468   4.8482   8.7189   8.7456  11.1178  11.1504  12.1810  12.1815
    13.9198  13.9374

          k =-0.0000-0.4000 0.4000 (  1895 PWs)   bands (ev):

    -8.6704  -8.6535  -8.6348  -8.6321  -8.2423  -8.2048  -8.1842  -8.1738
    -8.1586  -8.1560  -5.0430  -5.0391   1.5978   1.6343   3.7920   3.8533
     5.6154   5.6156   8.9258   8.9835  11.1832  11.2273  11.2672  11.2682
    11.9132  11.9383

          k = 0.0000 0.0000 0.4000 (  1900 PWs)   bands (ev):

    -8.6559  -8.6559  -8.6364  -8.6364  -8.2218  -8.2218  -8.1679  -8.1679
    -8.1663  -8.1663  -5.5380  -5.5380   3.0742   3.0742   5.0634   5.0634
     5.1886   5.1886   8.6570   8.6570   9.5143   9.5143  12.0429  12.0429
    12.0648  12.0648

          k =-0.2000 0.2000 0.2000 (  1901 PWs)   bands (ev):

    -8.6494  -8.6494  -8.6443  -8.6393  -8.2183  -8.2183  -8.1757  -8.1757
    -8.1645  -8.1588  -5.6831  -5.6831   3.0864   3.0864   5.7780   5.7780
     5.9860   5.9894   7.8086   7.8086  10.6735  10.6735  10.8061  10.8084
    11.3907  11.3907

          k =-0.4000 0.4000 0.0000 (  1895 PWs)   bands (ev):

    -8.6704  -8.6535  -8.6348  -8.6321  -8.2423  -8.2048  -8.1842  -8.1738
    -8.1586  -8.1560  -5.0430  -5.0391   1.5978   1.6343   3.7920   3.8533
     5.6154   5.6156   8.9258   8.9835  11.1832  11.2273  11.2672  11.2682
    11.9132  11.9383

          k = 0.4000-0.4000 0.8000 (  1885 PWs)   bands (ev):

    -8.6845  -8.6556  -8.6327  -8.6251  -8.2560  -8.1978  -8.1879  -8.1752
    -8.1532  -8.1514  -4.2106  -4.2082   0.0504   0.0849   3.2553   3.3073
     4.8468   4.8482   8.7189   8.7456  11.1178  11.1504  12.1810  12.1815
    13.9198  13.9374

          k = 0.2000-0.2000 0.6000 (  1884 PWs)   bands (ev):

    -8.6766  -8.6560  -8.6343  -8.6282  -8.2456  -8.2099  -8.1762  -8.1732
    -8.1567  -8.1559  -4.6993  -4.6965   0.9526   0.9774   3.9923   4.0415
     4.6203   4.6277   8.6920   8.7119  10.3419  10.3928  12.0498  12.0903
    12.7390  12.7410

          k = 0.2000 0.2000 0.6000 (  1884 PWs)   bands (ev):

    -8.6766  -8.6560  -8.6343  -8.6282  -8.2456  -8.2099  -8.1762  -8.1732
    -8.1567  -8.1559  -4.6993  -4.6965   0.9526   0.9774   3.9923   4.0415
     4.6203   4.6277   8.6920   8.7119  10.3419  10.3928  12.0498  12.0903
    12.7390  12.7410

          k = 0.0000 0.4000 0.4000 (  1895 PWs)   bands (ev):

    -8.6704  -8.6535  -8.6348  -8.6321  -8.2423  -8.2048  -8.1842  -8.1738
    -8.1586  -8.1560  -5.0430  -5.0391   1.5978   1.6343   3.7920   3.8533
     5.6154   5.6156   8.9258   8.9835  11.1832  11.2273  11.2672  11.2682
    11.9132  11.9383

          k =-0.2000 0.6000 0.2000 (  1884 PWs)   bands (ev):

    -8.6766  -8.6560  -8.6343  -8.6282  -8.2456  -8.2099  -8.1762  -8.1732
    -8.1567  -8.1559  -4.6993  -4.6965   0.9526   0.9774   3.9923   4.0415
     4.6203   4.6277   8.6920   8.7119  10.3419  10.3928  12.0498  12.0903
    12.7390  12.7410

          k = 0.6000-0.2000 1.0000 (  1880 PWs)   bands (ev):

    -8.6918  -8.6569  -8.6279  -8.6208  -8.2651  -8.1974  -8.1782  -8.1697
    -8.1559  -8.1524  -3.9685  -3.9675   0.0840   0.1320   2.8900   2.9625
     3.8053   3.8452  10.0806  10.2103  10.4732  10.5055  11.4411  11.5031
    14.3668  14.3895

          k = 0.4000 0.0000 0.8000 (  1880 PWs)   bands (ev):

    -8.6918  -8.6569  -8.6279  -8.6208  -8.2651  -8.1974  -8.1782  -8.1697
    -8.1559  -8.1524  -3.9685  -3.9675   0.0840   0.1320   2.8900   2.9625
     3.8053   3.8452  10.0806  10.2103  10.4732  10.5055  11.4411  11.5031
    14.3668  14.3895

          k =-0.6000-0.6000-0.2000 (  1885 PWs)   bands (ev):

    -8.6845  -8.6556  -8.6327  -8.6251  -8.2560  -8.1978  -8.1879  -8.1752
    -8.1532  -8.1514  -4.2106  -4.2082   0.0504   0.0849   3.2553   3.3073
     4.8468   4.8482   8.7189   8.7456  11.1178  11.1504  12.1810  12.1815
    13.9198  13.9374

          k =-0.8000-0.4000-0.4000 (  1885 PWs)   bands (ev):

    -8.6845  -8.6556  -8.6327  -8.6251  -8.2560  -8.1978  -8.1879  -8.1752
    -8.1532  -8.1514  -4.2106  -4.2082   0.0504   0.0849   3.2553   3.3073
     4.8468   4.8482   8.7189   8.7456  11.1178  11.1504  12.1810  12.1815
    13.9198  13.9374

          k =-1.0000-0.2000-0.6000 (  1880 PWs)   bands (ev):

    -8.6918  -8.6569  -8.6279  -8.6208  -8.2651  -8.1974  -8.1782  -8.1697
    -8.1559  -8.1524  -3.9685  -3.9675   0.0840   0.1320   2.8900   2.9625
     3.8053   3.8452  10.0806  10.2103  10.4732  10.5055  11.4411  11.5031
    14.3668  14.3895

          k =-0.2000-1.0000 0.2000 (  1876 PWs)   bands (ev):

    -8.6911  -8.6621  -8.6277  -8.6197  -8.2596  -8.2092  -8.1693  -8.1657
    -8.1597  -8.1495  -3.7646  -3.7639  -0.2174  -0.1779   2.8439   2.8954
     4.0589   4.0620   8.1927   8.1952  10.0401  10.0861  14.5402  14.5908
    14.8049  14.8102

          k =-0.4000-0.8000-0.0000 (  1880 PWs)   bands (ev):

    -8.6918  -8.6569  -8.6279  -8.6208  -8.2651  -8.1974  -8.1782  -8.1697
    -8.1559  -8.1524  -3.9685  -3.9675   0.0840   0.1320   2.8900   2.9625
     3.8053   3.8452  10.0806  10.2103  10.4732  10.5055  11.4411  11.5031
    14.3668  14.3895

          k =-0.4000-0.4000 0.0000 (  1895 PWs)   bands (ev):

    -8.6704  -8.6535  -8.6348  -8.6321  -8.2423  -8.2048  -8.1842  -8.1738
    -8.1586  -8.1560  -5.0430  -5.0391   1.5978   1.6343   3.7920   3.8533
     5.6154   5.6156   8.9258   8.9835  11.1832  11.2273  11.2672  11.2682
    11.9132  11.9383

          k =-0.6000-0.2000-0.2000 (  1884 PWs)   bands (ev):

    -8.6766  -8.6560  -8.6343  -8.6282  -8.2456  -8.2099  -8.1762  -8.1732
    -8.1567  -8.1559  -4.6993  -4.6965   0.9526   0.9774   3.9923   4.0415
     4.6203   4.6277   8.6920   8.7119  10.3419  10.3928  12.0498  12.0903
    12.7390  12.7410

          k =-0.8000 0.0000-0.4000 (  1880 PWs)   bands (ev):

    -8.6918  -8.6569  -8.6279  -8.6208  -8.2651  -8.1974  -8.1782  -8.1697
    -8.1559  -8.1524  -3.9685  -3.9675   0.0840   0.1320   2.8900   2.9625
     3.8053   3.8452  10.0806  10.2103  10.4732  10.5055  11.4411  11.5031
    14.3668  14.3895

          k = 0.0000-0.8000 0.4000 (  1880 PWs)   bands (ev):

    -8.6918  -8.6569  -8.6279  -8.6208  -8.2651  -8.1974  -8.1782  -8.1697
    -8.1559  -8.1524  -3.9685  -3.9675   0.0840   0.1320   2.8900   2.9625
     3.8053   3.8452  10.0806  10.2103  10.4732  10.5055  11.4411  11.5031
    14.3668  14.3895

          k =-0.2000-0.6000 0.2000 (  1884 PWs)   bands (ev):

    -8.6766  -8.6560  -8.6343  -8.6282  -8.2456  -8.2099  -8.1762  -8.1732
    -8.1567  -8.1559  -4.6993  -4.6965   0.9526   0.9774   3.9923   4.0415
     4.6203   4.6277   8.6920   8.7119  10.3419  10.3928  12.0498  12.0903
    12.7390  12.7410

          k =-0.4000-0.4000 0.4000 (  1889 PWs)   bands (ev):

    -8.6599  -8.6599  -8.6411  -8.6380  -8.2225  -8.2225  -8.1855  -8.1855
    -8.1536  -8.1502  -4.7020  -4.7020   0.3677   0.3677   5.2419   5.2419
     5.4447   5.4466   7.3325   7.3325  10.9496  10.9496  11.0496  11.0508
    14.0432  14.0432

          k =-0.6000-0.2000 0.2000 (  1884 PWs)   bands (ev):

    -8.6766  -8.6560  -8.6343  -8.6282  -8.2456  -8.2099  -8.1762  -8.1732
    -8.1567  -8.1559  -4.6993  -4.6965   0.9526   0.9774   3.9923   4.0415
     4.6203   4.6277   8.6920   8.7119  10.3419  10.3928  12.0498  12.0903
    12.7390  12.7410

          k =-0.8000 0.0000 0.0000 (  1884 PWs)   bands (ev):

    -8.6747  -8.6747  -8.6262  -8.6262  -8.2329  -8.2329  -8.1661  -8.1661
    -8.1547  -8.1547  -4.1553  -4.1553   0.2653   0.2653   3.9119   3.9119
     3.9996   3.9996   7.8174   7.8174   8.4712   8.4712  15.2536  15.2536
    15.3213  15.3213

          k = 0.0000-0.8000 0.8000 (  1876 PWs)   bands (ev):

    -8.6911  -8.6621  -8.6277  -8.6197  -8.2596  -8.2092  -8.1693  -8.1657
    -8.1597  -8.1495  -3.7646  -3.7639  -0.2174  -0.1779   2.8439   2.8954
     4.0589   4.0620   8.1927   8.1952  10.0401  10.0861  14.5402  14.5909
    14.8049  14.8102

          k =-0.2000-0.6000 0.6000 (  1885 PWs)   bands (ev):

    -8.6845  -8.6556  -8.6327  -8.6251  -8.2560  -8.1978  -8.1879  -8.1752
    -8.1532  -8.1514  -4.2106  -4.2082   0.0504   0.0849   3.2553   3.3073
     4.8468   4.8482   8.7189   8.7456  11.1178  11.1504  12.1810  12.1815
    13.9198  13.9374

          k =-0.2000-0.2000 0.6000 (  1884 PWs)   bands (ev):

    -8.6766  -8.6560  -8.6343  -8.6282  -8.2456  -8.2099  -8.1762  -8.1732
    -8.1567  -8.1559  -4.6993  -4.6965   0.9526   0.9774   3.9923   4.0415
     4.6203   4.6277   8.6920   8.7119  10.3419  10.3928  12.0498  12.0903
    12.7390  12.7410

          k =-0.4000 0.0000 0.4000 (  1895 PWs)   bands (ev):

    -8.6704  -8.6535  -8.6348  -8.6321  -8.2423  -8.2048  -8.1842  -8.1738
    -8.1586  -8.1560  -5.0430  -5.0391   1.5978   1.6343   3.7920   3.8533
     5.6154   5.6156   8.9258   8.9835  11.1832  11.2273  11.2672  11.2682
    11.9132  11.9383

          k =-0.6000 0.2000 0.2000 (  1884 PWs)   bands (ev):

    -8.6766  -8.6560  -8.6343  -8.6282  -8.2456  -8.2099  -8.1762  -8.1732
    -8.1567  -8.1559  -4.6993  -4.6965   0.9526   0.9774   3.9923   4.0415
     4.6203   4.6277   8.6920   8.7119  10.3419  10.3928  12.0498  12.0903
    12.7390  12.7410

          k = 0.2000-0.6000 1.0000 (  1880 PWs)   bands (ev):

    -8.6918  -8.6569  -8.6279  -8.6208  -8.2651  -8.1974  -8.1782  -8.1697
    -8.1559  -8.1524  -3.9685  -3.9675   0.0840   0.1320   2.8900   2.9625
     3.8053   3.8452  10.0806  10.2103  10.4732  10.5055  11.4411  11.5031
    14.3668  14.3895

          k =-0.0000-0.4000 0.8000 (  1880 PWs)   bands (ev):

    -8.6918  -8.6569  -8.6279  -8.6208  -8.2651  -8.1974  -8.1782  -8.1697
    -8.1559  -8.1524  -3.9685  -3.9675   0.0840   0.1320   2.8900   2.9625
     3.8053   3.8452  10.0806  10.2103  10.4732  10.5055  11.4411  11.5031
    14.3668  14.3895

          k = 0.0000 0.0000 0.8000 (  1884 PWs)   bands (ev):

    -8.6747  -8.6747  -8.6262  -8.6262  -8.2329  -8.2329  -8.1661  -8.1661
    -8.1547  -8.1547  -4.1553  -4.1553   0.2653   0.2653   3.9119   3.9119
     3.9996   3.9996   7.8174   7.8174   8.4712   8.4712  15.2536  15.2538
    15.3213  15.3213

          k =-0.2000 0.2000 0.6000 (  1884 PWs)   bands (ev):

    -8.6766  -8.6560  -8.6343  -8.6282  -8.2456  -8.2099  -8.1762  -8.1732
    -8.1567  -8.1559  -4.6993  -4.6965   0.9526   0.9774   3.9923   4.0415
     4.6203   4.6277   8.6920   8.7119  10.3419  10.3928  12.0498  12.0903
    12.7390  12.7410

          k =-0.4000 0.4000 0.4000 (  1889 PWs)   bands (ev):

    -8.6599  -8.6599  -8.6411  -8.6380  -8.2225  -8.2225  -8.1855  -8.1855
    -8.1536  -8.1502  -4.7020  -4.7020   0.3677   0.3677   5.2419   5.2419
     5.4447   5.4466   7.3325   7.3325  10.9496  10.9496  11.0496  11.0508
    14.0432  14.0432

          k = 0.4000-0.4000 1.2000 (  1885 PWs)   bands (ev):

    -8.6845  -8.6556  -8.6327  -8.6251  -8.2560  -8.1978  -8.1879  -8.1752
    -8.1532  -8.1514  -4.2106  -4.2082   0.0504   0.0849   3.2553   3.3073
     4.8468   4.8482   8.7189   8.7456  11.1178  11.1504  12.1810  12.1815
    13.9198  13.9374

          k = 0.2000-0.2000 1.0000 (  1876 PWs)   bands (ev):

    -8.6911  -8.6621  -8.6277  -8.6197  -8.2596  -8.2092  -8.1693  -8.1657
    -8.1597  -8.1495  -3.7646  -3.7639  -0.2174  -0.1779   2.8439   2.8954
     4.0589   4.0620   8.1927   8.1952  10.0401  10.0861  14.5402  14.5908
    14.8049  14.8102

          k =-0.8000-0.8000 0.0000 (  1876 PWs)   bands (ev):

    -8.6911  -8.6621  -8.6277  -8.6197  -8.2596  -8.2092  -8.1693  -8.1657
    -8.1597  -8.1495  -3.7646  -3.7639  -0.2174  -0.1779   2.8439   2.8954
     4.0589   4.0620   8.1927   8.1952  10.0401  10.0861  14.5402  14.5908
    14.8049  14.8102

          k =-1.0000-0.6000-0.2000 (  1880 PWs)   bands (ev):

    -8.6918  -8.6569  -8.6279  -8.6208  -8.2651  -8.1974  -8.1782  -8.1697
    -8.1559  -8.1524  -3.9685  -3.9675   0.0840   0.1320   2.8900   2.9625
     3.8053   3.8452  10.0806  10.2103  10.4732  10.5055  11.4411  11.5031
    14.3668  14.3895

          k =-1.2000-0.4000-0.4000 (  1885 PWs)   bands (ev):

    -8.6845  -8.6556  -8.6327  -8.6251  -8.2560  -8.1978  -8.1879  -8.1752
    -8.1532  -8.1514  -4.2106  -4.2082   0.0504   0.0849   3.2553   3.3073
     4.8468   4.8482   8.7189   8.7456  11.1178  11.1504  12.1810  12.1815
    13.9198  13.9374

          k =-0.4000-1.2000 0.4000 (  1885 PWs)   bands (ev):

    -8.6845  -8.6556  -8.6327  -8.6251  -8.2560  -8.1978  -8.1879  -8.1752
    -8.1532  -8.1514  -4.2106  -4.2082   0.0504   0.0849   3.2553   3.3073
     4.8468   4.8482   8.7189   8.7456  11.1178  11.1504  12.1810  12.1815
    13.9198  13.9374

          k =-0.6000-1.0000 0.2000 (  1880 PWs)   bands (ev):

    -8.6918  -8.6569  -8.6279  -8.6208  -8.2651  -8.1974  -8.1782  -8.1697
    -8.1559  -8.1524  -3.9685  -3.9675   0.0840   0.1320   2.8900   2.9625
     3.8053   3.8452  10.0806  10.2103  10.4732  10.5055  11.4411  11.5031
    14.3668  14.3895

          k =-0.6000-0.6000 0.2000 (  1885 PWs)   bands (ev):

    -8.6845  -8.6556  -8.6327  -8.6251  -8.2560  -8.1978  -8.1879  -8.1752
    -8.1532  -8.1514  -4.2106  -4.2082   0.0504   0.0849   3.2553   3.3073
     4.8468   4.8482   8.7189   8.7456  11.1178  11.1504  12.1810  12.1815
    13.9198  13.9374

          k =-0.8000-0.4000 0.0000 (  1880 PWs)   bands (ev):

    -8.6918  -8.6569  -8.6279  -8.6208  -8.2651  -8.1974  -8.1782  -8.1697
    -8.1559  -8.1524  -3.9685  -3.9675   0.0840   0.1320   2.8900   2.9625
     3.8053   3.8452  10.0806  10.2103  10.4732  10.5055  11.4411  11.5031
    14.3668  14.3895

          k =-1.0000-0.2000-0.2000 (  1876 PWs)   bands (ev):

    -8.6911  -8.6621  -8.6277  -8.6197  -8.2596  -8.2092  -8.1693  -8.1657
    -8.1597  -8.1495  -3.7646  -3.7639  -0.2174  -0.1779   2.8439   2.8954
     4.0589   4.0620   8.1927   8.1952  10.0401  10.0861  14.5402  14.5908
    14.8049  14.8102

          k =-0.2000-1.0000 0.6000 (  1880 PWs)   bands (ev):

    -8.6918  -8.6569  -8.6279  -8.6208  -8.2651  -8.1974  -8.1782  -8.1697
    -8.1559  -8.1524  -3.9685  -3.9675   0.0840   0.1320   2.8900   2.9625
     3.8053   3.8452  10.0806  10.2103  10.4732  10.5055  11.4411  11.5031
    14.3668  14.3895

          k =-0.4000-0.8000 0.4000 (  1885 PWs)   bands (ev):

    -8.6845  -8.6556  -8.6327  -8.6251  -8.2560  -8.1978  -8.1879  -8.1752
    -8.1532  -8.1514  -4.2106  -4.2082   0.0504   0.0849   3.2553   3.3073
     4.8468   4.8482   8.7189   8.7456  11.1178  11.1504  12.1810  12.1815
    13.9198  13.9374

     the Fermi energy is     6.5471 ev

!    total energy              =    -191.00114616 Ry
     estimated scf accuracy    <          8.5E-10 Ry
     smearing contrib. (-TS)   =      -0.00000002 Ry
     internal energy E=F+TS    =    -191.00114614 Ry

     The total energy is F=E-TS. E is the sum of the following terms:
     one-electron contribution =    -113.56306809 Ry
     hartree contribution      =      72.33755117 Ry
     xc contribution           =     -57.87892396 Ry
     ewald contribution        =     -91.89670526 Ry

     convergence has been achieved in  10 iterations

     Writing all to output data dir ./GaAs.save/

     init_run     :     18.95s CPU      4.75s WALL (       1 calls)
     electrons    :    519.28s CPU    115.72s WALL (       1 calls)

     Called by init_run:
     wfcinit      :     17.33s CPU      3.87s WALL (       1 calls)
     potinit      :      0.04s CPU      0.05s WALL (       1 calls)
     hinit0       :      0.61s CPU      0.61s WALL (       1 calls)

     Called by electrons:
     c_bands      :    416.42s CPU     92.86s WALL (      11 calls)
     sum_band     :     93.40s CPU     20.26s WALL (      11 calls)
     v_of_rho     :      1.70s CPU      0.46s WALL (      11 calls)
     newd         :      7.67s CPU      2.04s WALL (      11 calls)
     mix_rho      :      0.60s CPU      0.20s WALL (      11 calls)

     Called by c_bands:
     init_us_2    :      5.45s CPU      0.83s WALL (    1449 calls)
     init_us_2:cp :      5.41s CPU      0.83s WALL (    1449 calls)
     cegterg      :    382.93s CPU     87.87s WALL (     693 calls)

     Called by *egterg:
     cdiaghg      :      9.17s CPU      1.35s WALL (    2035 calls)
     h_psi        :    326.00s CPU     80.27s WALL (    2161 calls)
     s_psi        :      7.08s CPU      1.45s WALL (    2161 calls)
     g_psi        :      1.19s CPU      0.25s WALL (    1405 calls)

     Called by h_psi:
     h_psi:calbec :     11.90s CPU      2.88s WALL (    2161 calls)
     vloc_psi     :    306.47s CPU     75.68s WALL (    2161 calls)
     add_vuspsi   :      5.95s CPU      1.40s WALL (    2161 calls)

     General routines
     calbec       :     16.26s CPU      3.87s WALL (    2854 calls)
     fft          :      1.32s CPU      0.45s WALL (     265 calls)
     ffts         :      0.24s CPU      0.05s WALL (      88 calls)
     fftw         :    301.01s CPU     72.37s WALL (  207552 calls)
     interpolate  :      0.36s CPU      0.12s WALL (      44 calls)


     PWSCF        :   9m 0.09s CPU   2m 1.09s WALL


   This run was terminated on:  18:49:41  12May2024            

=------------------------------------------------------------------------------=
   JOB DONE.
=------------------------------------------------------------------------------=
