
     Program PWSCF v.7.2 starts on 12May2024 at 18:38: 3 

     This program is part of the open-source Quantum ESPRESSO suite
     for quantum simulation of materials; please cite
         "P. Giannozzi et al., J. Phys.:Condens. Matter 21 395502 (2009);
         "P. Giannozzi et al., J. Phys.:Condens. Matter 29 465901 (2017);
         "P. Giannozzi et al., J. Chem. Phys. 152 154105 (2020);
          URL http://www.quantum-espresso.org", 
     in publications or presentations arising from this work. More details at
     http://www.quantum-espresso.org/quote

     Serial version
     0 MiB available memory on the printing compute node when the environment starts

     Waiting for input...
     Reading input from standard input

     Current dimensions of program PWSCF are:
     Max number of different atomic species (ntypx) = 10
     Max number of k-points (npk) =  40000
     Max angular momentum in pseudopotentials (lmaxx) =  4
     file Ga.rel-pbe-dn-rrkjus_psl.0.2.UPF: wavefunction(s)  4S 3D 3D renormalized


     G-vector sticks info
     --------------------
     sticks:   dense  smooth     PW     G-vecs:    dense   smooth      PW
     Sum        1459     733    223                36661    12939    2229

     Using Slab Decomposition



     bravais-lattice index     =            2
     lattice parameter (alat)  =      10.2833  a.u.
     unit-cell volume          =     271.8569 (a.u.)^3
     number of atoms/cell      =            2
     number of atomic types    =            2
     number of electrons       =        18.00
     number of Kohn-Sham states=           26
     kinetic-energy cutoff     =      50.0000  Ry
     charge density cutoff     =     400.0000  Ry
     scf convergence threshold =      1.0E-08
     mixing beta               =       0.3000
     number of iterations used =            8  plain     mixing
     Exchange-correlation= PBE
                           (   1   4   3   4   0   0   0)
     Non magnetic calculation with spin-orbit


     celldm(1)=  10.283322  celldm(2)=   0.000000  celldm(3)=   0.000000
     celldm(4)=   0.000000  celldm(5)=   0.000000  celldm(6)=   0.000000

     crystal axes: (cart. coord. in units of alat)
               a(1) = (  -0.500000   0.000000   0.500000 )  
               a(2) = (   0.000000   0.500000   0.500000 )  
               a(3) = (  -0.500000   0.500000   0.000000 )  

     reciprocal axes: (cart. coord. in units 2 pi/alat)
               b(1) = ( -1.000000 -1.000000  1.000000 )  
               b(2) = (  1.000000  1.000000  1.000000 )  
               b(3) = ( -1.000000  1.000000 -1.000000 )  


     PseudoPot. # 1 for As read from file:
     ../pseudopotential/As.rel-pbe-n-rrkjus_psl.0.2.UPF
     MD5 check sum: fd1d9cb43fef956eb1cdd0c60ce90062
     Pseudo is Ultrasoft + core correction, Zval =  5.0
     Generated using "atomic" code by A. Dal Corso  v.5.0.2 svn rev. 9415
     Using radial grid of 1209 points,  6 beta functions with: 
                l(1) =   0
                l(2) =   0
                l(3) =   1
                l(4) =   1
                l(5) =   1
                l(6) =   1
     Q(r) pseudized with 0 coefficients 


     PseudoPot. # 2 for Ga read from file:
     ../pseudopotential/Ga.rel-pbe-dn-rrkjus_psl.0.2.UPF
     MD5 check sum: b82f27152fdba9c8aaf7d704465ad383
     Pseudo is Ultrasoft + core correction, Zval = 13.0
     Generated using "atomic" code by A. Dal Corso  v.5.0.2 svn rev. 9415
     Using radial grid of 1205 points, 10 beta functions with: 
                l(1) =   0
                l(2) =   0
                l(3) =   1
                l(4) =   1
                l(5) =   1
                l(6) =   1
                l(7) =   2
                l(8) =   2
                l(9) =   2
               l(10) =   2
     Q(r) pseudized with 0 coefficients 


     atomic species   valence    mass     pseudopotential
        As             5.00    74.92160     As( 1.00)
        Ga            13.00    69.72000     Ga( 1.00)

     No symmetry found



   Cartesian axes

     site n.     atom                  positions (alat units)
         1           Ga  tau(   1) = (   0.0000000   0.0000000   0.0000000  )
         2           As  tau(   2) = (   0.2500000   0.2500000   0.2500000  )

     number of k points=    63  Gaussian smearing, width (Ry)=  0.0020
                       cart. coord. in units 2pi/alat
        k(    1) = (   0.0000000   0.0000000   0.0000000), wk =   0.0080000
        k(    2) = (  -0.2000000   0.2000000  -0.2000000), wk =   0.0160000
        k(    3) = (  -0.4000000   0.4000000  -0.4000000), wk =   0.0160000
        k(    4) = (   0.2000000   0.2000000   0.2000000), wk =   0.0160000
        k(    5) = (   0.0000000   0.4000000   0.0000000), wk =   0.0160000
        k(    6) = (  -0.2000000   0.6000000  -0.2000000), wk =   0.0160000
        k(    7) = (   0.6000000  -0.2000000   0.6000000), wk =   0.0160000
        k(    8) = (   0.4000000   0.0000000   0.4000000), wk =   0.0160000
        k(    9) = (   0.4000000   0.4000000   0.4000000), wk =   0.0160000
        k(   10) = (   0.2000000   0.6000000   0.2000000), wk =   0.0160000
        k(   11) = (   0.0000000   0.8000000   0.0000000), wk =   0.0160000
        k(   12) = (   0.8000000   0.0000000   0.8000000), wk =   0.0160000
        k(   13) = (   0.6000000   0.2000000   0.6000000), wk =   0.0160000
        k(   14) = (  -0.2000000  -0.2000000   0.2000000), wk =   0.0160000
        k(   15) = (  -0.4000000   0.0000000   0.0000000), wk =   0.0160000
        k(   16) = (  -0.6000000   0.2000000  -0.2000000), wk =   0.0160000
        k(   17) = (   0.2000000  -0.6000000   0.6000000), wk =   0.0160000
        k(   18) = (  -0.0000000  -0.4000000   0.4000000), wk =   0.0160000
        k(   19) = (   0.0000000   0.0000000   0.4000000), wk =   0.0160000
        k(   20) = (  -0.2000000   0.2000000   0.2000000), wk =   0.0160000
        k(   21) = (  -0.4000000   0.4000000   0.0000000), wk =   0.0160000
        k(   22) = (   0.4000000  -0.4000000   0.8000000), wk =   0.0160000
        k(   23) = (   0.2000000  -0.2000000   0.6000000), wk =   0.0160000
        k(   24) = (   0.2000000   0.2000000   0.6000000), wk =   0.0160000
        k(   25) = (   0.0000000   0.4000000   0.4000000), wk =   0.0160000
        k(   26) = (  -0.2000000   0.6000000   0.2000000), wk =   0.0160000
        k(   27) = (   0.6000000  -0.2000000   1.0000000), wk =   0.0160000
        k(   28) = (   0.4000000   0.0000000   0.8000000), wk =   0.0160000
        k(   29) = (  -0.6000000  -0.6000000  -0.2000000), wk =   0.0160000
        k(   30) = (  -0.8000000  -0.4000000  -0.4000000), wk =   0.0160000
        k(   31) = (  -1.0000000  -0.2000000  -0.6000000), wk =   0.0160000
        k(   32) = (  -0.2000000  -1.0000000   0.2000000), wk =   0.0160000
        k(   33) = (  -0.4000000  -0.8000000  -0.0000000), wk =   0.0160000
        k(   34) = (  -0.4000000  -0.4000000   0.0000000), wk =   0.0160000
        k(   35) = (  -0.6000000  -0.2000000  -0.2000000), wk =   0.0160000
        k(   36) = (  -0.8000000   0.0000000  -0.4000000), wk =   0.0160000
        k(   37) = (   0.0000000  -0.8000000   0.4000000), wk =   0.0160000
        k(   38) = (  -0.2000000  -0.6000000   0.2000000), wk =   0.0160000
        k(   39) = (  -0.4000000  -0.4000000   0.4000000), wk =   0.0160000
        k(   40) = (  -0.6000000  -0.2000000   0.2000000), wk =   0.0160000
        k(   41) = (  -0.8000000   0.0000000   0.0000000), wk =   0.0160000
        k(   42) = (   0.0000000  -0.8000000   0.8000000), wk =   0.0160000
        k(   43) = (  -0.2000000  -0.6000000   0.6000000), wk =   0.0160000
        k(   44) = (  -0.2000000  -0.2000000   0.6000000), wk =   0.0160000
        k(   45) = (  -0.4000000   0.0000000   0.4000000), wk =   0.0160000
        k(   46) = (  -0.6000000   0.2000000   0.2000000), wk =   0.0160000
        k(   47) = (   0.2000000  -0.6000000   1.0000000), wk =   0.0160000
        k(   48) = (  -0.0000000  -0.4000000   0.8000000), wk =   0.0160000
        k(   49) = (   0.0000000   0.0000000   0.8000000), wk =   0.0160000
        k(   50) = (  -0.2000000   0.2000000   0.6000000), wk =   0.0160000
        k(   51) = (  -0.4000000   0.4000000   0.4000000), wk =   0.0160000
        k(   52) = (   0.4000000  -0.4000000   1.2000000), wk =   0.0160000
        k(   53) = (   0.2000000  -0.2000000   1.0000000), wk =   0.0160000
        k(   54) = (  -0.8000000  -0.8000000   0.0000000), wk =   0.0160000
        k(   55) = (  -1.0000000  -0.6000000  -0.2000000), wk =   0.0160000
        k(   56) = (  -1.2000000  -0.4000000  -0.4000000), wk =   0.0160000
        k(   57) = (  -0.4000000  -1.2000000   0.4000000), wk =   0.0160000
        k(   58) = (  -0.6000000  -1.0000000   0.2000000), wk =   0.0160000
        k(   59) = (  -0.6000000  -0.6000000   0.2000000), wk =   0.0160000
        k(   60) = (  -0.8000000  -0.4000000   0.0000000), wk =   0.0160000
        k(   61) = (  -1.0000000  -0.2000000  -0.2000000), wk =   0.0160000
        k(   62) = (  -0.2000000  -1.0000000   0.6000000), wk =   0.0160000
        k(   63) = (  -0.4000000  -0.8000000   0.4000000), wk =   0.0160000

     Dense  grid:    36661 G-vectors     FFT dimensions: (  48,  48,  48)

     Smooth grid:    12939 G-vectors     FFT dimensions: (  36,  36,  36)

     Estimated max dynamical RAM per process >     503.81 MB

     Initial potential from superposition of free atoms

     starting charge      17.9971, renormalised to      18.0000
     Starting wfcs are   26 randomized atomic wfcs

     total cpu time spent up to now is        4.6 secs

     Self-consistent Calculation

     iteration #  1     ecut=    50.00 Ry     beta= 0.30
     Davidson diagonalization with overlap
     ethr =  1.00E-02,  avg # of iterations =  4.0

     Threshold (ethr) on eigenvalues was too large:
     Diagonalizing with lowered threshold

     Davidson diagonalization with overlap
     ethr =  2.95E-04,  avg # of iterations =  2.4

     total cpu time spent up to now is       24.8 secs

     total energy              =    -190.97937634 Ry
     estimated scf accuracy    <       0.05292070 Ry

     iteration #  2     ecut=    50.00 Ry     beta= 0.30
     Davidson diagonalization with overlap
     ethr =  2.94E-04,  avg # of iterations =  1.2

     total cpu time spent up to now is       33.6 secs

     total energy              =    -190.97852697 Ry
     estimated scf accuracy    <       0.01586554 Ry

     iteration #  3     ecut=    50.00 Ry     beta= 0.30
     Davidson diagonalization with overlap
     ethr =  8.81E-05,  avg # of iterations =  2.0

     total cpu time spent up to now is       42.7 secs

     total energy              =    -190.97950525 Ry
     estimated scf accuracy    <       0.00223510 Ry

     iteration #  4     ecut=    50.00 Ry     beta= 0.30
     Davidson diagonalization with overlap
     ethr =  1.24E-05,  avg # of iterations =  2.3

     total cpu time spent up to now is       51.7 secs

     total energy              =    -190.97963546 Ry
     estimated scf accuracy    <       0.00007160 Ry

     iteration #  5     ecut=    50.00 Ry     beta= 0.30
     Davidson diagonalization with overlap
     ethr =  3.98E-07,  avg # of iterations =  2.8

     total cpu time spent up to now is       63.2 secs

     total energy              =    -190.97966200 Ry
     estimated scf accuracy    <       0.00005501 Ry

     iteration #  6     ecut=    50.00 Ry     beta= 0.30
     Davidson diagonalization with overlap
     ethr =  3.06E-07,  avg # of iterations =  1.0

     total cpu time spent up to now is       71.7 secs

     total energy              =    -190.97965920 Ry
     estimated scf accuracy    <       0.00000936 Ry

     iteration #  7     ecut=    50.00 Ry     beta= 0.30
     Davidson diagonalization with overlap
     ethr =  5.20E-08,  avg # of iterations =  2.0

     total cpu time spent up to now is       83.7 secs

     total energy              =    -190.97966294 Ry
     estimated scf accuracy    <       0.00000163 Ry

     iteration #  8     ecut=    50.00 Ry     beta= 0.30
     Davidson diagonalization with overlap
     ethr =  9.03E-09,  avg # of iterations =  1.0

     total cpu time spent up to now is       92.3 secs

     total energy              =    -190.97966258 Ry
     estimated scf accuracy    <       0.00000052 Ry

     iteration #  9     ecut=    50.00 Ry     beta= 0.30
     Davidson diagonalization with overlap
     ethr =  2.87E-09,  avg # of iterations =  2.0

     total cpu time spent up to now is      103.4 secs

     total energy              =    -190.97966276 Ry
     estimated scf accuracy    <       0.00000018 Ry

     iteration # 10     ecut=    50.00 Ry     beta= 0.30
     Davidson diagonalization with overlap
     ethr =  9.98E-10,  avg # of iterations =  2.0

     total cpu time spent up to now is      113.3 secs

     End of self-consistent calculation

          k = 0.0000 0.0000 0.0000 (  1639 PWs)   bands (ev):

    -7.0143  -7.0143  -7.0143  -7.0143  -6.6023  -6.6023  -6.5256  -6.5256
    -6.5256  -6.5256  -5.3354  -5.3354   8.0523   8.0523   8.4040   8.4040
     8.4040   8.4040   9.7143   9.7143  11.8772  11.8772  12.0793  12.0793
    12.0793  12.0793

          k =-0.2000 0.2000-0.2000 (  1618 PWs)   bands (ev):

    -7.0307  -7.0307  -7.0154  -7.0068  -6.6123  -6.6123  -6.5407  -6.5407
    -6.5214  -6.5118  -4.7942  -4.7942   4.8250   4.8250   7.5761   7.5761
     7.7956   7.8004  10.2978  10.2978  12.7411  12.7411  12.8794  12.8828
    13.9666  13.9666

          k =-0.4000 0.4000-0.4000 (  1631 PWs)   bands (ev):

    -7.0569  -7.0569  -7.0096  -7.0044  -6.6141  -6.6141  -6.5565  -6.5565
    -6.5039  -6.4980  -3.5286  -3.5286   1.5476   1.5476   6.9328   6.9328
     7.1495   7.1520   9.6977   9.6977  12.9311  12.9311  13.0263  13.0277
    16.2519  16.2519

          k = 0.2000 0.2000 0.2000 (  1618 PWs)   bands (ev):

    -7.0307  -7.0307  -7.0154  -7.0068  -6.6123  -6.6123  -6.5407  -6.5407
    -6.5214  -6.5118  -4.7942  -4.7942   4.8250   4.8250   7.5761   7.5761
     7.7956   7.8004  10.2978  10.2978  12.7411  12.7411  12.8794  12.8828
    13.9666  13.9666

          k = 0.0000 0.4000 0.0000 (  1627 PWs)   bands (ev):

    -7.0424  -7.0424  -7.0019  -7.0019  -6.6167  -6.6167  -6.5271  -6.5271
    -6.5254  -6.5254  -4.6182  -4.6182   5.0180   5.0180   6.6845   6.6845
     6.8055   6.8055  10.5300  10.5300  12.0966  12.0966  14.3964  14.3964
    14.4173  14.4173

          k =-0.2000 0.6000-0.2000 (  1626 PWs)   bands (ev):

    -7.0829  -7.0455  -6.9988  -6.9878  -6.6537  -6.5912  -6.5397  -6.5385
    -6.5102  -6.5072  -3.5559  -3.5493   2.4072   2.4318   5.4611   5.4997
     6.1460   6.1520  10.6900  10.6930  12.7281  12.7928  14.1780  14.2234
    15.0723  15.0754

          k = 0.6000-0.2000 0.6000 (  1625 PWs)   bands (ev):

    -7.0969  -7.0444  -6.9958  -6.9837  -6.6695  -6.5714  -6.5587  -6.5415
    -6.5037  -6.5003  -2.8796  -2.8732   1.2243   1.2592   4.5961   4.6374
     6.4290   6.4293  10.8592  10.8720  13.3761  13.4105  14.3672  14.3678
    16.5651  16.6021

          k = 0.4000 0.0000 0.4000 (  1618 PWs)   bands (ev):

    -7.0724  -7.0372  -6.9990  -6.9956  -6.6537  -6.5858  -6.5531  -6.5379
    -6.5119  -6.5080  -3.9931  -3.9839   3.1894   3.2282   5.1506   5.2041
     7.3690   7.3715  11.4060  11.4477  13.3878  13.3942  13.4806  13.5095
    14.1633  14.1872

          k = 0.4000 0.4000 0.4000 (  1631 PWs)   bands (ev):

    -7.0569  -7.0569  -7.0096  -7.0044  -6.6141  -6.6141  -6.5565  -6.5565
    -6.5039  -6.4980  -3.5286  -3.5286   1.5476   1.5476   6.9328   6.9328
     7.1495   7.1520   9.6977   9.6977  12.9311  12.9311  13.0263  13.0277
    16.2519  16.2519

          k = 0.2000 0.6000 0.2000 (  1626 PWs)   bands (ev):

    -7.0829  -7.0455  -6.9988  -6.9878  -6.6537  -6.5912  -6.5397  -6.5385
    -6.5102  -6.5072  -3.5559  -3.5493   2.4072   2.4318   5.4611   5.4997
     6.1460   6.1520  10.6900  10.6930  12.7281  12.7928  14.1780  14.2234
    15.0723  15.0754

          k = 0.0000 0.8000 0.0000 (  1628 PWs)   bands (ev):

    -7.0804  -7.0804  -6.9851  -6.9851  -6.6223  -6.6223  -6.5284  -6.5284
    -6.5042  -6.5042  -2.8550  -2.8550   1.6488   1.6488   5.3076   5.3076
     5.3930   5.3930   9.4973   9.4973  10.2844  10.2844  18.1456  18.1456
    18.2285  18.2285

          k = 0.8000 0.0000 0.8000 (  1634 PWs)   bands (ev):

    -7.1069  -7.0577  -6.9877  -6.9734  -6.6687  -6.5852  -6.5337  -6.5221
    -6.5163  -6.4963  -2.2794  -2.2790   0.9963   1.0424   3.9853   4.0313
     5.4765   5.4783   9.9510   9.9543  12.1322  12.1676  17.3950  17.4584
    17.5405  17.5519

          k = 0.6000 0.2000 0.6000 (  1625 PWs)   bands (ev):

    -7.0969  -7.0444  -6.9958  -6.9837  -6.6695  -6.5714  -6.5587  -6.5415
    -6.5037  -6.5003  -2.8796  -2.8732   1.2243   1.2592   4.5961   4.6374
     6.4290   6.4293  10.8592  10.8720  13.3761  13.4105  14.3672  14.3678
    16.5651  16.6021

          k =-0.2000-0.2000 0.2000 (  1618 PWs)   bands (ev):

    -7.0307  -7.0307  -7.0154  -7.0068  -6.6123  -6.6123  -6.5407  -6.5407
    -6.5214  -6.5118  -4.7942  -4.7942   4.8250   4.8250   7.5761   7.5761
     7.7956   7.8004  10.2978  10.2978  12.7411  12.7411  12.8794  12.8828
    13.9666  13.9666

          k =-0.4000 0.0000 0.0000 (  1627 PWs)   bands (ev):

    -7.0424  -7.0424  -7.0019  -7.0019  -6.6167  -6.6167  -6.5271  -6.5271
    -6.5254  -6.5254  -4.6182  -4.6182   5.0180   5.0180   6.6845   6.6845
     6.8055   6.8055  10.5300  10.5300  12.0966  12.0966  14.3964  14.3964
    14.4173  14.4173

          k =-0.6000 0.2000-0.2000 (  1626 PWs)   bands (ev):

    -7.0829  -7.0455  -6.9988  -6.9878  -6.6537  -6.5912  -6.5397  -6.5385
    -6.5102  -6.5072  -3.5559  -3.5493   2.4072   2.4318   5.4611   5.4997
     6.1460   6.1520  10.6900  10.6930  12.7281  12.7928  14.1780  14.2234
    15.0723  15.0754

          k = 0.2000-0.6000 0.6000 (  1625 PWs)   bands (ev):

    -7.0969  -7.0444  -6.9958  -6.9837  -6.6695  -6.5714  -6.5587  -6.5415
    -6.5037  -6.5003  -2.8796  -2.8732   1.2243   1.2592   4.5961   4.6374
     6.4290   6.4293  10.8592  10.8720  13.3761  13.4105  14.3672  14.3678
    16.5651  16.6021

          k =-0.0000-0.4000 0.4000 (  1618 PWs)   bands (ev):

    -7.0724  -7.0372  -6.9990  -6.9956  -6.6537  -6.5858  -6.5531  -6.5379
    -6.5119  -6.5080  -3.9931  -3.9839   3.1894   3.2282   5.1506   5.2041
     7.3690   7.3715  11.4060  11.4477  13.3878  13.3942  13.4806  13.5095
    14.1633  14.1872

          k = 0.0000 0.0000 0.4000 (  1627 PWs)   bands (ev):

    -7.0424  -7.0424  -7.0019  -7.0019  -6.6167  -6.6167  -6.5271  -6.5271
    -6.5254  -6.5254  -4.6182  -4.6182   5.0180   5.0180   6.6845   6.6845
     6.8055   6.8055  10.5300  10.5300  12.0966  12.0966  14.3964  14.3964
    14.4173  14.4173

          k =-0.2000 0.2000 0.2000 (  1618 PWs)   bands (ev):

    -7.0307  -7.0307  -7.0154  -7.0068  -6.6123  -6.6123  -6.5407  -6.5407
    -6.5214  -6.5118  -4.7942  -4.7942   4.8250   4.8250   7.5761   7.5761
     7.7956   7.8004  10.2978  10.2978  12.7411  12.7411  12.8794  12.8828
    13.9666  13.9666

          k =-0.4000 0.4000 0.0000 (  1618 PWs)   bands (ev):

    -7.0724  -7.0372  -6.9990  -6.9956  -6.6537  -6.5858  -6.5531  -6.5379
    -6.5119  -6.5080  -3.9931  -3.9839   3.1894   3.2282   5.1506   5.2041
     7.3690   7.3715  11.4060  11.4477  13.3878  13.3942  13.4806  13.5095
    14.1633  14.1872

          k = 0.4000-0.4000 0.8000 (  1625 PWs)   bands (ev):

    -7.0969  -7.0444  -6.9958  -6.9837  -6.6695  -6.5714  -6.5587  -6.5415
    -6.5037  -6.5003  -2.8796  -2.8732   1.2243   1.2592   4.5961   4.6374
     6.4290   6.4293  10.8592  10.8720  13.3761  13.4105  14.3672  14.3678
    16.5651  16.6021

          k = 0.2000-0.2000 0.6000 (  1626 PWs)   bands (ev):

    -7.0829  -7.0455  -6.9988  -6.9878  -6.6537  -6.5912  -6.5397  -6.5385
    -6.5102  -6.5072  -3.5559  -3.5493   2.4072   2.4318   5.4611   5.4997
     6.1460   6.1520  10.6900  10.6930  12.7281  12.7928  14.1780  14.2234
    15.0723  15.0754

          k = 0.2000 0.2000 0.6000 (  1626 PWs)   bands (ev):

    -7.0829  -7.0455  -6.9988  -6.9878  -6.6537  -6.5912  -6.5397  -6.5385
    -6.5102  -6.5072  -3.5559  -3.5493   2.4072   2.4318   5.4611   5.4997
     6.1460   6.1520  10.6900  10.6930  12.7281  12.7928  14.1780  14.2234
    15.0723  15.0754

          k = 0.0000 0.4000 0.4000 (  1618 PWs)   bands (ev):

    -7.0724  -7.0372  -6.9990  -6.9956  -6.6537  -6.5858  -6.5531  -6.5379
    -6.5119  -6.5080  -3.9931  -3.9839   3.1894   3.2282   5.1506   5.2041
     7.3690   7.3715  11.4060  11.4477  13.3878  13.3942  13.4806  13.5095
    14.1634  14.1872

          k =-0.2000 0.6000 0.2000 (  1626 PWs)   bands (ev):

    -7.0829  -7.0455  -6.9988  -6.9878  -6.6537  -6.5912  -6.5397  -6.5385
    -6.5102  -6.5072  -3.5559  -3.5493   2.4072   2.4318   5.4611   5.4997
     6.1460   6.1520  10.6900  10.6930  12.7281  12.7928  14.1780  14.2234
    15.0723  15.0754

          k = 0.6000-0.2000 1.0000 (  1622 PWs)   bands (ev):

    -7.1075  -7.0468  -6.9873  -6.9753  -6.6825  -6.5692  -6.5421  -6.5337
    -6.5088  -6.5019  -2.5722  -2.5681   1.3981   1.4528   4.0615   4.1294
     5.1379   5.1740  12.2815  12.3465  12.7778  12.8413  13.4896  13.5519
    17.0354  17.0604

          k = 0.4000 0.0000 0.8000 (  1622 PWs)   bands (ev):

    -7.1075  -7.0468  -6.9873  -6.9753  -6.6825  -6.5692  -6.5421  -6.5337
    -6.5088  -6.5019  -2.5722  -2.5681   1.3981   1.4528   4.0615   4.1294
     5.1379   5.1740  12.2815  12.3465  12.7778  12.8413  13.4896  13.5519
    17.0354  17.0604

          k =-0.6000-0.6000-0.2000 (  1625 PWs)   bands (ev):

    -7.0969  -7.0444  -6.9958  -6.9837  -6.6695  -6.5714  -6.5587  -6.5415
    -6.5037  -6.5003  -2.8796  -2.8732   1.2243   1.2592   4.5961   4.6374
     6.4290   6.4293  10.8592  10.8720  13.3761  13.4105  14.3672  14.3678
    16.5651  16.6021

          k =-0.8000-0.4000-0.4000 (  1625 PWs)   bands (ev):

    -7.0969  -7.0444  -6.9958  -6.9837  -6.6695  -6.5714  -6.5587  -6.5415
    -6.5037  -6.5003  -2.8796  -2.8732   1.2243   1.2592   4.5961   4.6374
     6.4290   6.4293  10.8592  10.8720  13.3761  13.4105  14.3672  14.3678
    16.5651  16.6021

          k =-1.0000-0.2000-0.6000 (  1622 PWs)   bands (ev):

    -7.1075  -7.0468  -6.9873  -6.9753  -6.6825  -6.5692  -6.5421  -6.5337
    -6.5088  -6.5019  -2.5722  -2.5681   1.3981   1.4528   4.0615   4.1294
     5.1379   5.1740  12.2815  12.3465  12.7778  12.8413  13.4896  13.5519
    17.0354  17.0604

          k =-0.2000-1.0000 0.2000 (  1634 PWs)   bands (ev):

    -7.1069  -7.0577  -6.9877  -6.9734  -6.6687  -6.5852  -6.5337  -6.5221
    -6.5163  -6.4963  -2.2794  -2.2790   0.9963   1.0424   3.9853   4.0313
     5.4765   5.4783   9.9510   9.9543  12.1322  12.1676  17.3950  17.4584
    17.5405  17.5519

          k =-0.4000-0.8000-0.0000 (  1622 PWs)   bands (ev):

    -7.1075  -7.0468  -6.9873  -6.9753  -6.6825  -6.5692  -6.5421  -6.5337
    -6.5088  -6.5019  -2.5722  -2.5681   1.3981   1.4528   4.0615   4.1294
     5.1379   5.1740  12.2815  12.3465  12.7778  12.8413  13.4896  13.5519
    17.0354  17.0604

          k =-0.4000-0.4000 0.0000 (  1618 PWs)   bands (ev):

    -7.0724  -7.0372  -6.9990  -6.9956  -6.6537  -6.5858  -6.5531  -6.5379
    -6.5119  -6.5080  -3.9931  -3.9839   3.1894   3.2282   5.1506   5.2041
     7.3690   7.3715  11.4060  11.4477  13.3878  13.3942  13.4806  13.5095
    14.1633  14.1872

          k =-0.6000-0.2000-0.2000 (  1626 PWs)   bands (ev):

    -7.0829  -7.0455  -6.9988  -6.9878  -6.6537  -6.5912  -6.5397  -6.5385
    -6.5102  -6.5072  -3.5559  -3.5493   2.4072   2.4318   5.4611   5.4997
     6.1460   6.1520  10.6900  10.6930  12.7281  12.7928  14.1780  14.2234
    15.0723  15.0754

          k =-0.8000 0.0000-0.4000 (  1622 PWs)   bands (ev):

    -7.1075  -7.0468  -6.9873  -6.9753  -6.6825  -6.5692  -6.5421  -6.5337
    -6.5088  -6.5019  -2.5722  -2.5681   1.3981   1.4528   4.0615   4.1294
     5.1379   5.1740  12.2815  12.3465  12.7778  12.8413  13.4896  13.5519
    17.0354  17.0604

          k = 0.0000-0.8000 0.4000 (  1622 PWs)   bands (ev):

    -7.1075  -7.0468  -6.9873  -6.9753  -6.6825  -6.5692  -6.5421  -6.5337
    -6.5088  -6.5019  -2.5722  -2.5681   1.3981   1.4528   4.0615   4.1294
     5.1379   5.1740  12.2815  12.3465  12.7778  12.8413  13.4896  13.5519
    17.0354  17.0604

          k =-0.2000-0.6000 0.2000 (  1626 PWs)   bands (ev):

    -7.0829  -7.0455  -6.9988  -6.9878  -6.6537  -6.5912  -6.5397  -6.5385
    -6.5102  -6.5072  -3.5559  -3.5493   2.4072   2.4318   5.4611   5.4997
     6.1460   6.1520  10.6900  10.6930  12.7281  12.7928  14.1780  14.2234
    15.0723  15.0754

          k =-0.4000-0.4000 0.4000 (  1631 PWs)   bands (ev):

    -7.0569  -7.0569  -7.0096  -7.0044  -6.6141  -6.6141  -6.5565  -6.5565
    -6.5039  -6.4980  -3.5286  -3.5286   1.5476   1.5476   6.9328   6.9328
     7.1495   7.1520   9.6977   9.6977  12.9311  12.9311  13.0263  13.0277
    16.2519  16.2519

          k =-0.6000-0.2000 0.2000 (  1626 PWs)   bands (ev):

    -7.0829  -7.0455  -6.9988  -6.9878  -6.6537  -6.5912  -6.5397  -6.5385
    -6.5102  -6.5072  -3.5559  -3.5493   2.4072   2.4318   5.4611   5.4997
     6.1460   6.1520  10.6900  10.6930  12.7281  12.7928  14.1780  14.2234
    15.0723  15.0754

          k =-0.8000 0.0000 0.0000 (  1628 PWs)   bands (ev):

    -7.0804  -7.0804  -6.9851  -6.9851  -6.6223  -6.6223  -6.5284  -6.5284
    -6.5042  -6.5042  -2.8550  -2.8550   1.6488   1.6488   5.3076   5.3076
     5.3930   5.3930   9.4973   9.4973  10.2844  10.2844  18.1456  18.1456
    18.2285  18.2285

          k = 0.0000-0.8000 0.8000 (  1634 PWs)   bands (ev):

    -7.1069  -7.0577  -6.9877  -6.9734  -6.6687  -6.5852  -6.5337  -6.5221
    -6.5163  -6.4963  -2.2794  -2.2790   0.9963   1.0424   3.9853   4.0313
     5.4765   5.4783   9.9510   9.9543  12.1322  12.1676  17.3950  17.4584
    17.5405  17.5519

          k =-0.2000-0.6000 0.6000 (  1625 PWs)   bands (ev):

    -7.0969  -7.0444  -6.9958  -6.9837  -6.6695  -6.5714  -6.5587  -6.5415
    -6.5037  -6.5003  -2.8796  -2.8732   1.2243   1.2592   4.5961   4.6374
     6.4290   6.4293  10.8592  10.8720  13.3761  13.4105  14.3672  14.3678
    16.5651  16.6021

          k =-0.2000-0.2000 0.6000 (  1626 PWs)   bands (ev):

    -7.0829  -7.0455  -6.9988  -6.9878  -6.6537  -6.5912  -6.5397  -6.5385
    -6.5102  -6.5072  -3.5559  -3.5493   2.4072   2.4318   5.4611   5.4997
     6.1460   6.1520  10.6900  10.6930  12.7281  12.7928  14.1780  14.2234
    15.0723  15.0754

          k =-0.4000 0.0000 0.4000 (  1618 PWs)   bands (ev):

    -7.0724  -7.0372  -6.9990  -6.9956  -6.6537  -6.5858  -6.5531  -6.5379
    -6.5119  -6.5080  -3.9931  -3.9839   3.1894   3.2282   5.1506   5.2041
     7.3690   7.3715  11.4060  11.4477  13.3878  13.3942  13.4806  13.5095
    14.1633  14.1872

          k =-0.6000 0.2000 0.2000 (  1626 PWs)   bands (ev):

    -7.0829  -7.0455  -6.9988  -6.9878  -6.6537  -6.5912  -6.5397  -6.5385
    -6.5102  -6.5072  -3.5559  -3.5493   2.4072   2.4318   5.4611   5.4997
     6.1460   6.1520  10.6900  10.6930  12.7281  12.7928  14.1780  14.2234
    15.0723  15.0754

          k = 0.2000-0.6000 1.0000 (  1622 PWs)   bands (ev):

    -7.1075  -7.0468  -6.9873  -6.9753  -6.6825  -6.5692  -6.5421  -6.5337
    -6.5088  -6.5019  -2.5722  -2.5681   1.3981   1.4528   4.0615   4.1294
     5.1379   5.1740  12.2815  12.3465  12.7778  12.8413  13.4896  13.5519
    17.0354  17.0604

          k =-0.0000-0.4000 0.8000 (  1622 PWs)   bands (ev):

    -7.1075  -7.0468  -6.9873  -6.9753  -6.6825  -6.5692  -6.5421  -6.5337
    -6.5088  -6.5019  -2.5722  -2.5681   1.3981   1.4528   4.0615   4.1294
     5.1379   5.1740  12.2815  12.3465  12.7778  12.8413  13.4896  13.5519
    17.0354  17.0604

          k = 0.0000 0.0000 0.8000 (  1628 PWs)   bands (ev):

    -7.0804  -7.0804  -6.9851  -6.9851  -6.6223  -6.6223  -6.5284  -6.5284
    -6.5042  -6.5042  -2.8550  -2.8550   1.6488   1.6488   5.3076   5.3076
     5.3930   5.3930   9.4973   9.4973  10.2844  10.2844  18.1456  18.1456
    18.2285  18.2285

          k =-0.2000 0.2000 0.6000 (  1626 PWs)   bands (ev):

    -7.0829  -7.0455  -6.9988  -6.9878  -6.6537  -6.5912  -6.5397  -6.5385
    -6.5102  -6.5072  -3.5559  -3.5493   2.4072   2.4318   5.4611   5.4997
     6.1460   6.1520  10.6900  10.6930  12.7281  12.7928  14.1780  14.2234
    15.0723  15.0754

          k =-0.4000 0.4000 0.4000 (  1631 PWs)   bands (ev):

    -7.0569  -7.0569  -7.0096  -7.0044  -6.6141  -6.6141  -6.5565  -6.5565
    -6.5039  -6.4980  -3.5286  -3.5286   1.5476   1.5476   6.9328   6.9328
     7.1495   7.1520   9.6977   9.6977  12.9311  12.9311  13.0263  13.0277
    16.2519  16.2519

          k = 0.4000-0.4000 1.2000 (  1625 PWs)   bands (ev):

    -7.0969  -7.0444  -6.9958  -6.9837  -6.6695  -6.5714  -6.5587  -6.5415
    -6.5037  -6.5003  -2.8796  -2.8732   1.2243   1.2592   4.5961   4.6374
     6.4290   6.4293  10.8592  10.8720  13.3761  13.4105  14.3672  14.3678
    16.5651  16.6021

          k = 0.2000-0.2000 1.0000 (  1634 PWs)   bands (ev):

    -7.1069  -7.0577  -6.9877  -6.9734  -6.6687  -6.5852  -6.5337  -6.5221
    -6.5163  -6.4963  -2.2794  -2.2790   0.9963   1.0424   3.9853   4.0313
     5.4765   5.4783   9.9510   9.9543  12.1322  12.1676  17.3950  17.4584
    17.5405  17.5519

          k =-0.8000-0.8000 0.0000 (  1634 PWs)   bands (ev):

    -7.1069  -7.0577  -6.9877  -6.9734  -6.6687  -6.5852  -6.5337  -6.5221
    -6.5163  -6.4963  -2.2794  -2.2790   0.9963   1.0424   3.9853   4.0313
     5.4765   5.4783   9.9510   9.9543  12.1322  12.1676  17.3950  17.4584
    17.5405  17.5519

          k =-1.0000-0.6000-0.2000 (  1622 PWs)   bands (ev):

    -7.1075  -7.0468  -6.9873  -6.9753  -6.6825  -6.5692  -6.5421  -6.5337
    -6.5088  -6.5019  -2.5722  -2.5681   1.3981   1.4528   4.0615   4.1294
     5.1379   5.1740  12.2815  12.3465  12.7778  12.8413  13.4896  13.5519
    17.0354  17.0604

          k =-1.2000-0.4000-0.4000 (  1625 PWs)   bands (ev):

    -7.0969  -7.0444  -6.9958  -6.9837  -6.6695  -6.5714  -6.5587  -6.5415
    -6.5037  -6.5003  -2.8796  -2.8732   1.2243   1.2592   4.5961   4.6374
     6.4290   6.4293  10.8592  10.8720  13.3761  13.4105  14.3672  14.3678
    16.5651  16.6021

          k =-0.4000-1.2000 0.4000 (  1625 PWs)   bands (ev):

    -7.0969  -7.0444  -6.9958  -6.9837  -6.6695  -6.5714  -6.5587  -6.5415
    -6.5037  -6.5003  -2.8796  -2.8732   1.2243   1.2592   4.5961   4.6374
     6.4290   6.4293  10.8592  10.8720  13.3761  13.4105  14.3672  14.3678
    16.5651  16.6021

          k =-0.6000-1.0000 0.2000 (  1622 PWs)   bands (ev):

    -7.1075  -7.0468  -6.9873  -6.9753  -6.6825  -6.5692  -6.5421  -6.5337
    -6.5088  -6.5019  -2.5722  -2.5681   1.3981   1.4528   4.0615   4.1294
     5.1379   5.1740  12.2815  12.3465  12.7778  12.8413  13.4896  13.5519
    17.0354  17.0604

          k =-0.6000-0.6000 0.2000 (  1625 PWs)   bands (ev):

    -7.0969  -7.0444  -6.9958  -6.9837  -6.6695  -6.5714  -6.5587  -6.5415
    -6.5037  -6.5003  -2.8796  -2.8732   1.2243   1.2592   4.5961   4.6374
     6.4290   6.4293  10.8592  10.8720  13.3761  13.4105  14.3672  14.3678
    16.5651  16.6021

          k =-0.8000-0.4000 0.0000 (  1622 PWs)   bands (ev):

    -7.1075  -7.0468  -6.9873  -6.9753  -6.6825  -6.5692  -6.5421  -6.5337
    -6.5088  -6.5019  -2.5722  -2.5681   1.3981   1.4528   4.0615   4.1294
     5.1379   5.1740  12.2815  12.3465  12.7778  12.8413  13.4896  13.5519
    17.0354  17.0604

          k =-1.0000-0.2000-0.2000 (  1634 PWs)   bands (ev):

    -7.1069  -7.0577  -6.9877  -6.9734  -6.6687  -6.5852  -6.5337  -6.5221
    -6.5163  -6.4963  -2.2794  -2.2790   0.9963   1.0424   3.9853   4.0313
     5.4765   5.4783   9.9510   9.9543  12.1322  12.1676  17.3950  17.4584
    17.5405  17.5519

          k =-0.2000-1.0000 0.6000 (  1622 PWs)   bands (ev):

    -7.1075  -7.0468  -6.9873  -6.9753  -6.6825  -6.5692  -6.5421  -6.5337
    -6.5088  -6.5019  -2.5722  -2.5681   1.3981   1.4528   4.0615   4.1294
     5.1379   5.1740  12.2815  12.3465  12.7778  12.8413  13.4896  13.5519
    17.0354  17.0604

          k =-0.4000-0.8000 0.4000 (  1625 PWs)   bands (ev):

    -7.0969  -7.0444  -6.9958  -6.9837  -6.6695  -6.5714  -6.5587  -6.5415
    -6.5037  -6.5003  -2.8796  -2.8732   1.2243   1.2592   4.5961   4.6374
     6.4290   6.4293  10.8592  10.8720  13.3761  13.4105  14.3672  14.3678
    16.5651  16.6021

     the Fermi energy is     8.7956 ev

!    total energy              =    -190.97966280 Ry
     estimated scf accuracy    <          8.7E-11 Ry
     smearing contrib. (-TS)   =      -0.00000000 Ry
     internal energy E=F+TS    =    -190.97966280 Ry

     The total energy is F=E-TS. E is the sum of the following terms:
     one-electron contribution =    -105.94562981 Ry
     hartree contribution      =      69.64222359 Ry
     xc contribution           =     -58.04260775 Ry
     ewald contribution        =     -96.63364883 Ry

     convergence has been achieved in  10 iterations

     Writing all to output data dir ./GaAs.save/

     init_run     :     15.86s CPU      4.25s WALL (       1 calls)
     electrons    :    480.52s CPU    108.74s WALL (       1 calls)

     Called by init_run:
     wfcinit      :     14.51s CPU      3.40s WALL (       1 calls)
     potinit      :      0.05s CPU      0.06s WALL (       1 calls)
     hinit0       :      0.61s CPU      0.61s WALL (       1 calls)

     Called by electrons:
     c_bands      :    387.18s CPU     87.46s WALL (      11 calls)
     sum_band     :     84.68s CPU     18.77s WALL (      11 calls)
     v_of_rho     :      1.46s CPU      0.52s WALL (      11 calls)
     newd         :      6.41s CPU      1.74s WALL (      11 calls)
     mix_rho      :      0.73s CPU      0.27s WALL (      11 calls)

     Called by c_bands:
     init_us_2    :      4.79s CPU      0.73s WALL (    1449 calls)
     init_us_2:cp :      4.77s CPU      0.72s WALL (    1449 calls)
     cegterg      :    357.02s CPU     83.14s WALL (     693 calls)

     Called by *egterg:
     cdiaghg      :      9.87s CPU      1.41s WALL (    2059 calls)
     h_psi        :    310.25s CPU     76.84s WALL (    2185 calls)
     s_psi        :      5.47s CPU      1.22s WALL (    2185 calls)
     g_psi        :      0.91s CPU      0.22s WALL (    1429 calls)

     Called by h_psi:
     h_psi:calbec :      5.35s CPU      1.61s WALL (    2185 calls)
     vloc_psi     :    299.59s CPU     73.81s WALL (    2185 calls)
     add_vuspsi   :      4.16s CPU      1.17s WALL (    2185 calls)

     General routines
     calbec       :      6.59s CPU      2.09s WALL (    2878 calls)
     fft          :      2.39s CPU      0.79s WALL (     265 calls)
     ffts         :      0.21s CPU      0.05s WALL (      88 calls)
     fftw         :    296.37s CPU     71.45s WALL (  210524 calls)
     interpolate  :      0.64s CPU      0.18s WALL (      44 calls)


     PWSCF        :   8m17.79s CPU   1m53.40s WALL


   This run was terminated on:  18:39:56  12May2024            

=------------------------------------------------------------------------------=
   JOB DONE.
=------------------------------------------------------------------------------=
