
     Program PWSCF v.7.2 starts on 12May2024 at 18:45:53 

     This program is part of the open-source Quantum ESPRESSO suite
     for quantum simulation of materials; please cite
         "P. Giannozzi et al., J. Phys.:Condens. Matter 21 395502 (2009);
         "P. Giannozzi et al., J. Phys.:Condens. Matter 29 465901 (2017);
         "P. Giannozzi et al., J. Chem. Phys. 152 154105 (2020);
          URL http://www.quantum-espresso.org", 
     in publications or presentations arising from this work. More details at
     http://www.quantum-espresso.org/quote

     Serial version
     0 MiB available memory on the printing compute node when the environment starts

     Waiting for input...
     Reading input from standard input

     Current dimensions of program PWSCF are:
     Max number of different atomic species (ntypx) = 10
     Max number of k-points (npk) =  40000
     Max angular momentum in pseudopotentials (lmaxx) =  4
     file Ga.rel-pbe-dn-rrkjus_psl.0.2.UPF: wavefunction(s)  4S 3D 3D renormalized


     G-vector sticks info
     --------------------
     sticks:   dense  smooth     PW     G-vecs:    dense   smooth      PW
     Sum        1573     793    241                41391    14649    2445

     Using Slab Decomposition



     bravais-lattice index     =            2
     lattice parameter (alat)  =      10.7074  a.u.
     unit-cell volume          =     306.8946 (a.u.)^3
     number of atoms/cell      =            2
     number of atomic types    =            2
     number of electrons       =        18.00
     number of Kohn-Sham states=           26
     kinetic-energy cutoff     =      50.0000  Ry
     charge density cutoff     =     400.0000  Ry
     scf convergence threshold =      1.0E-08
     mixing beta               =       0.3000
     number of iterations used =            8  plain     mixing
     Exchange-correlation= PBE
                           (   1   4   3   4   0   0   0)
     Non magnetic calculation with spin-orbit


     celldm(1)=  10.707376  celldm(2)=   0.000000  celldm(3)=   0.000000
     celldm(4)=   0.000000  celldm(5)=   0.000000  celldm(6)=   0.000000

     crystal axes: (cart. coord. in units of alat)
               a(1) = (  -0.500000   0.000000   0.500000 )  
               a(2) = (   0.000000   0.500000   0.500000 )  
               a(3) = (  -0.500000   0.500000   0.000000 )  

     reciprocal axes: (cart. coord. in units 2 pi/alat)
               b(1) = ( -1.000000 -1.000000  1.000000 )  
               b(2) = (  1.000000  1.000000  1.000000 )  
               b(3) = ( -1.000000  1.000000 -1.000000 )  


     PseudoPot. # 1 for As read from file:
     ../pseudopotential/As.rel-pbe-n-rrkjus_psl.0.2.UPF
     MD5 check sum: fd1d9cb43fef956eb1cdd0c60ce90062
     Pseudo is Ultrasoft + core correction, Zval =  5.0
     Generated using "atomic" code by A. Dal Corso  v.5.0.2 svn rev. 9415
     Using radial grid of 1209 points,  6 beta functions with: 
                l(1) =   0
                l(2) =   0
                l(3) =   1
                l(4) =   1
                l(5) =   1
                l(6) =   1
     Q(r) pseudized with 0 coefficients 


     PseudoPot. # 2 for Ga read from file:
     ../pseudopotential/Ga.rel-pbe-dn-rrkjus_psl.0.2.UPF
     MD5 check sum: b82f27152fdba9c8aaf7d704465ad383
     Pseudo is Ultrasoft + core correction, Zval = 13.0
     Generated using "atomic" code by A. Dal Corso  v.5.0.2 svn rev. 9415
     Using radial grid of 1205 points, 10 beta functions with: 
                l(1) =   0
                l(2) =   0
                l(3) =   1
                l(4) =   1
                l(5) =   1
                l(6) =   1
                l(7) =   2
                l(8) =   2
                l(9) =   2
               l(10) =   2
     Q(r) pseudized with 0 coefficients 


     atomic species   valence    mass     pseudopotential
        As             5.00    74.92160     As( 1.00)
        Ga            13.00    69.72000     Ga( 1.00)

     No symmetry found



   Cartesian axes

     site n.     atom                  positions (alat units)
         1           Ga  tau(   1) = (   0.0000000   0.0000000   0.0000000  )
         2           As  tau(   2) = (   0.2500000   0.2500000   0.2500000  )

     number of k points=    63  Gaussian smearing, width (Ry)=  0.0020
                       cart. coord. in units 2pi/alat
        k(    1) = (   0.0000000   0.0000000   0.0000000), wk =   0.0080000
        k(    2) = (  -0.2000000   0.2000000  -0.2000000), wk =   0.0160000
        k(    3) = (  -0.4000000   0.4000000  -0.4000000), wk =   0.0160000
        k(    4) = (   0.2000000   0.2000000   0.2000000), wk =   0.0160000
        k(    5) = (   0.0000000   0.4000000   0.0000000), wk =   0.0160000
        k(    6) = (  -0.2000000   0.6000000  -0.2000000), wk =   0.0160000
        k(    7) = (   0.6000000  -0.2000000   0.6000000), wk =   0.0160000
        k(    8) = (   0.4000000   0.0000000   0.4000000), wk =   0.0160000
        k(    9) = (   0.4000000   0.4000000   0.4000000), wk =   0.0160000
        k(   10) = (   0.2000000   0.6000000   0.2000000), wk =   0.0160000
        k(   11) = (   0.0000000   0.8000000   0.0000000), wk =   0.0160000
        k(   12) = (   0.8000000   0.0000000   0.8000000), wk =   0.0160000
        k(   13) = (   0.6000000   0.2000000   0.6000000), wk =   0.0160000
        k(   14) = (  -0.2000000  -0.2000000   0.2000000), wk =   0.0160000
        k(   15) = (  -0.4000000   0.0000000   0.0000000), wk =   0.0160000
        k(   16) = (  -0.6000000   0.2000000  -0.2000000), wk =   0.0160000
        k(   17) = (   0.2000000  -0.6000000   0.6000000), wk =   0.0160000
        k(   18) = (  -0.0000000  -0.4000000   0.4000000), wk =   0.0160000
        k(   19) = (   0.0000000   0.0000000   0.4000000), wk =   0.0160000
        k(   20) = (  -0.2000000   0.2000000   0.2000000), wk =   0.0160000
        k(   21) = (  -0.4000000   0.4000000   0.0000000), wk =   0.0160000
        k(   22) = (   0.4000000  -0.4000000   0.8000000), wk =   0.0160000
        k(   23) = (   0.2000000  -0.2000000   0.6000000), wk =   0.0160000
        k(   24) = (   0.2000000   0.2000000   0.6000000), wk =   0.0160000
        k(   25) = (   0.0000000   0.4000000   0.4000000), wk =   0.0160000
        k(   26) = (  -0.2000000   0.6000000   0.2000000), wk =   0.0160000
        k(   27) = (   0.6000000  -0.2000000   1.0000000), wk =   0.0160000
        k(   28) = (   0.4000000   0.0000000   0.8000000), wk =   0.0160000
        k(   29) = (  -0.6000000  -0.6000000  -0.2000000), wk =   0.0160000
        k(   30) = (  -0.8000000  -0.4000000  -0.4000000), wk =   0.0160000
        k(   31) = (  -1.0000000  -0.2000000  -0.6000000), wk =   0.0160000
        k(   32) = (  -0.2000000  -1.0000000   0.2000000), wk =   0.0160000
        k(   33) = (  -0.4000000  -0.8000000  -0.0000000), wk =   0.0160000
        k(   34) = (  -0.4000000  -0.4000000   0.0000000), wk =   0.0160000
        k(   35) = (  -0.6000000  -0.2000000  -0.2000000), wk =   0.0160000
        k(   36) = (  -0.8000000   0.0000000  -0.4000000), wk =   0.0160000
        k(   37) = (   0.0000000  -0.8000000   0.4000000), wk =   0.0160000
        k(   38) = (  -0.2000000  -0.6000000   0.2000000), wk =   0.0160000
        k(   39) = (  -0.4000000  -0.4000000   0.4000000), wk =   0.0160000
        k(   40) = (  -0.6000000  -0.2000000   0.2000000), wk =   0.0160000
        k(   41) = (  -0.8000000   0.0000000   0.0000000), wk =   0.0160000
        k(   42) = (   0.0000000  -0.8000000   0.8000000), wk =   0.0160000
        k(   43) = (  -0.2000000  -0.6000000   0.6000000), wk =   0.0160000
        k(   44) = (  -0.2000000  -0.2000000   0.6000000), wk =   0.0160000
        k(   45) = (  -0.4000000   0.0000000   0.4000000), wk =   0.0160000
        k(   46) = (  -0.6000000   0.2000000   0.2000000), wk =   0.0160000
        k(   47) = (   0.2000000  -0.6000000   1.0000000), wk =   0.0160000
        k(   48) = (  -0.0000000  -0.4000000   0.8000000), wk =   0.0160000
        k(   49) = (   0.0000000   0.0000000   0.8000000), wk =   0.0160000
        k(   50) = (  -0.2000000   0.2000000   0.6000000), wk =   0.0160000
        k(   51) = (  -0.4000000   0.4000000   0.4000000), wk =   0.0160000
        k(   52) = (   0.4000000  -0.4000000   1.2000000), wk =   0.0160000
        k(   53) = (   0.2000000  -0.2000000   1.0000000), wk =   0.0160000
        k(   54) = (  -0.8000000  -0.8000000   0.0000000), wk =   0.0160000
        k(   55) = (  -1.0000000  -0.6000000  -0.2000000), wk =   0.0160000
        k(   56) = (  -1.2000000  -0.4000000  -0.4000000), wk =   0.0160000
        k(   57) = (  -0.4000000  -1.2000000   0.4000000), wk =   0.0160000
        k(   58) = (  -0.6000000  -1.0000000   0.2000000), wk =   0.0160000
        k(   59) = (  -0.6000000  -0.6000000   0.2000000), wk =   0.0160000
        k(   60) = (  -0.8000000  -0.4000000   0.0000000), wk =   0.0160000
        k(   61) = (  -1.0000000  -0.2000000  -0.2000000), wk =   0.0160000
        k(   62) = (  -0.2000000  -1.0000000   0.6000000), wk =   0.0160000
        k(   63) = (  -0.4000000  -0.8000000   0.4000000), wk =   0.0160000

     Dense  grid:    41391 G-vectors     FFT dimensions: (  50,  50,  50)

     Smooth grid:    14649 G-vectors     FFT dimensions: (  36,  36,  36)

     Estimated max dynamical RAM per process >     567.73 MB

     Initial potential from superposition of free atoms

     starting charge      17.9971, renormalised to      18.0000
     Starting wfcs are   26 randomized atomic wfcs

     total cpu time spent up to now is        4.8 secs

     Self-consistent Calculation

     iteration #  1     ecut=    50.00 Ry     beta= 0.30
     Davidson diagonalization with overlap
     ethr =  1.00E-02,  avg # of iterations =  4.1

     Threshold (ethr) on eigenvalues was too large:
     Diagonalizing with lowered threshold

     Davidson diagonalization with overlap
     ethr =  2.72E-04,  avg # of iterations =  2.4

     total cpu time spent up to now is       26.0 secs

     total energy              =    -190.99877880 Ry
     estimated scf accuracy    <       0.04884482 Ry

     iteration #  2     ecut=    50.00 Ry     beta= 0.30
     Davidson diagonalization with overlap
     ethr =  2.71E-04,  avg # of iterations =  1.2

     total cpu time spent up to now is       35.1 secs

     total energy              =    -190.99898445 Ry
     estimated scf accuracy    <       0.01388641 Ry

     iteration #  3     ecut=    50.00 Ry     beta= 0.30
     Davidson diagonalization with overlap
     ethr =  7.71E-05,  avg # of iterations =  1.8

     total cpu time spent up to now is       44.3 secs

     total energy              =    -190.99974870 Ry
     estimated scf accuracy    <       0.00236622 Ry

     iteration #  4     ecut=    50.00 Ry     beta= 0.30
     Davidson diagonalization with overlap
     ethr =  1.31E-05,  avg # of iterations =  2.4

     total cpu time spent up to now is       54.8 secs

     total energy              =    -190.99985845 Ry
     estimated scf accuracy    <       0.00005875 Ry

     iteration #  5     ecut=    50.00 Ry     beta= 0.30
     Davidson diagonalization with overlap
     ethr =  3.26E-07,  avg # of iterations =  2.6

     total cpu time spent up to now is       66.9 secs

     total energy              =    -190.99988220 Ry
     estimated scf accuracy    <       0.00002930 Ry

     iteration #  6     ecut=    50.00 Ry     beta= 0.30
     Davidson diagonalization with overlap
     ethr =  1.63E-07,  avg # of iterations =  1.0

     total cpu time spent up to now is       75.9 secs

     total energy              =    -190.99988076 Ry
     estimated scf accuracy    <       0.00000521 Ry

     iteration #  7     ecut=    50.00 Ry     beta= 0.30
     Davidson diagonalization with overlap
     ethr =  2.90E-08,  avg # of iterations =  2.0

     total cpu time spent up to now is       87.4 secs

     total energy              =    -190.99988307 Ry
     estimated scf accuracy    <       0.00000145 Ry

     iteration #  8     ecut=    50.00 Ry     beta= 0.30
     Davidson diagonalization with overlap
     ethr =  8.05E-09,  avg # of iterations =  1.0

     total cpu time spent up to now is       96.4 secs

     total energy              =    -190.99988268 Ry
     estimated scf accuracy    <       0.00000066 Ry

     iteration #  9     ecut=    50.00 Ry     beta= 0.30
     Davidson diagonalization with overlap
     ethr =  3.64E-09,  avg # of iterations =  2.0

     total cpu time spent up to now is      107.3 secs

     End of self-consistent calculation

          k = 0.0000 0.0000 0.0000 (  1837 PWs)   bands (ev):

    -8.3366  -8.3366  -8.3366  -8.3366  -7.9105  -7.9105  -7.8586  -7.8586
    -7.8586  -7.8586  -5.9681  -5.9681   6.4922   6.4922   6.8262   6.8262
     6.8262   6.8262   7.1915   7.1915  10.2965  10.2965  10.4898  10.4898
    10.4898  10.4898

          k =-0.2000 0.2000-0.2000 (  1847 PWs)   bands (ev):

    -8.3438  -8.3438  -8.3375  -8.3319  -7.9152  -7.9152  -7.8680  -7.8680
    -7.8555  -7.8492  -5.5178  -5.5178   3.4133   3.4133   6.1080   6.1080
     6.3180   6.3217   8.2702   8.2702  11.0569  11.0569  11.1906  11.1931
    11.8594  11.8594

          k =-0.4000 0.4000-0.4000 (  1844 PWs)   bands (ev):

    -8.3564  -8.3564  -8.3339  -8.3304  -7.9194  -7.9194  -7.8788  -7.8788
    -7.8435  -7.8396  -4.4845  -4.4845   0.5880   0.5880   5.5522   5.5522
     5.7574   5.7594   7.7676   7.7676  11.3189  11.3189  11.4180  11.4192
    14.4737  14.4737

          k = 0.2000 0.2000 0.2000 (  1847 PWs)   bands (ev):

    -8.3438  -8.3438  -8.3375  -8.3319  -7.9152  -7.9152  -7.8680  -7.8680
    -7.8555  -7.8492  -5.5178  -5.5178   3.4133   3.4133   6.1080   6.1080
     6.3180   6.3217   8.2702   8.2702  11.0569  11.0569  11.1906  11.1931
    11.8594  11.8594

          k = 0.0000 0.4000 0.0000 (  1840 PWs)   bands (ev):

    -8.3511  -8.3511  -8.3286  -8.3286  -7.9189  -7.9189  -7.8592  -7.8592
    -7.8576  -7.8576  -5.3667  -5.3667   3.4349   3.4349   5.3614   5.3614
     5.4859   5.4859   9.0141   9.0141   9.9906   9.9906  12.4791  12.4791
    12.5002  12.5002

          k =-0.2000 0.6000-0.2000 (  1833 PWs)   bands (ev):

    -8.3748  -8.3516  -8.3264  -8.3195  -7.9452  -7.9051  -7.8683  -7.8654
    -7.8470  -7.8460  -4.4862  -4.4828   1.2225   1.2474   4.2603   4.3075
     4.9007   4.9077   9.0724   9.0881  10.7834  10.8383  12.4374  12.4792
    13.1739  13.1761

          k = 0.6000-0.2000 0.6000 (  1832 PWs)   bands (ev):

    -8.3838  -8.3511  -8.3246  -8.3162  -7.9567  -7.8918  -7.8812  -7.8676
    -7.8431  -7.8410  -3.9643  -3.9614   0.2699   0.3047   3.4996   3.5495
     5.1374   5.1385   9.1253   9.1488  11.5289  11.5623  12.5889  12.5896
    14.4161  14.4378

          k = 0.4000 0.0000 0.4000 (  1851 PWs)   bands (ev):

    -8.3679  -8.3483  -8.3269  -8.3241  -7.9421  -7.8998  -7.8773  -7.8659
    -7.8490  -7.8462  -4.8474  -4.8428   1.8930   1.9301   4.0415   4.1013
     5.9371   5.9375   9.3909   9.4455  11.6036  11.6430  11.6662  11.6702
    12.3276  12.3527

          k = 0.4000 0.4000 0.4000 (  1844 PWs)   bands (ev):

    -8.3564  -8.3564  -8.3339  -8.3304  -7.9194  -7.9194  -7.8788  -7.8788
    -7.8435  -7.8396  -4.4845  -4.4845   0.5880   0.5880   5.5522   5.5522
     5.7574   5.7594   7.7676   7.7676  11.3189  11.3189  11.4180  11.4192
    14.4737  14.4737

          k = 0.2000 0.6000 0.2000 (  1833 PWs)   bands (ev):

    -8.3748  -8.3516  -8.3264  -8.3195  -7.9452  -7.9051  -7.8683  -7.8654
    -7.8470  -7.8460  -4.4862  -4.4828   1.2225   1.2474   4.2603   4.3075
     4.9007   4.9077   9.0724   9.0881  10.7834  10.8383  12.4374  12.4792
    13.1739  13.1761

          k = 0.0000 0.8000 0.0000 (  1808 PWs)   bands (ev):

    -8.3728  -8.3728  -8.3174  -8.3174  -7.9299  -7.9299  -7.8577  -7.8577
    -7.8445  -7.8445  -3.9125  -3.9125   0.5189   0.5189   4.1685   4.1685
     4.2557   4.2557   8.1304   8.1304   8.8109   8.8109  15.7925  15.7927
    15.8631  15.8631

          k = 0.8000 0.0000 0.8000 (  1828 PWs)   bands (ev):

    -8.3911  -8.3586  -8.3190  -8.3101  -7.9599  -7.9039  -7.8613  -7.8566
    -7.8505  -7.8388  -3.4902  -3.4897   0.0066   0.0474   3.0542   3.1047
     4.3194   4.3222   8.5226   8.5235  10.4313  10.4755  15.0685  15.1249
    15.3149  15.3197

          k = 0.6000 0.2000 0.6000 (  1832 PWs)   bands (ev):

    -8.3838  -8.3511  -8.3246  -8.3162  -7.9567  -7.8918  -7.8812  -7.8676
    -7.8431  -7.8410  -3.9643  -3.9614   0.2699   0.3047   3.4996   3.5495
     5.1374   5.1385   9.1253   9.1488  11.5289  11.5623  12.5889  12.5896
    14.4161  14.4378

          k =-0.2000-0.2000 0.2000 (  1847 PWs)   bands (ev):

    -8.3438  -8.3438  -8.3375  -8.3319  -7.9152  -7.9152  -7.8680  -7.8680
    -7.8555  -7.8492  -5.5178  -5.5178   3.4133   3.4133   6.1080   6.1080
     6.3180   6.3217   8.2702   8.2702  11.0569  11.0569  11.1906  11.1931
    11.8594  11.8594

          k =-0.4000 0.0000 0.0000 (  1840 PWs)   bands (ev):

    -8.3511  -8.3511  -8.3286  -8.3286  -7.9189  -7.9189  -7.8592  -7.8592
    -7.8576  -7.8576  -5.3667  -5.3667   3.4349   3.4349   5.3614   5.3614
     5.4859   5.4859   9.0141   9.0141   9.9906   9.9906  12.4791  12.4791
    12.5002  12.5002

          k =-0.6000 0.2000-0.2000 (  1833 PWs)   bands (ev):

    -8.3748  -8.3516  -8.3264  -8.3195  -7.9452  -7.9051  -7.8683  -7.8654
    -7.8470  -7.8460  -4.4862  -4.4828   1.2225   1.2474   4.2603   4.3075
     4.9007   4.9077   9.0724   9.0881  10.7834  10.8383  12.4374  12.4792
    13.1739  13.1761

          k = 0.2000-0.6000 0.6000 (  1832 PWs)   bands (ev):

    -8.3838  -8.3511  -8.3246  -8.3162  -7.9567  -7.8918  -7.8812  -7.8676
    -7.8431  -7.8410  -3.9643  -3.9614   0.2699   0.3047   3.4996   3.5495
     5.1374   5.1385   9.1253   9.1488  11.5289  11.5623  12.5889  12.5896
    14.4161  14.4378

          k =-0.0000-0.4000 0.4000 (  1851 PWs)   bands (ev):

    -8.3679  -8.3483  -8.3269  -8.3241  -7.9421  -7.8998  -7.8773  -7.8659
    -7.8490  -7.8462  -4.8474  -4.8428   1.8930   1.9301   4.0415   4.1013
     5.9371   5.9375   9.3909   9.4455  11.6036  11.6430  11.6662  11.6702
    12.3276  12.3527

          k = 0.0000 0.0000 0.4000 (  1840 PWs)   bands (ev):

    -8.3511  -8.3511  -8.3286  -8.3286  -7.9189  -7.9189  -7.8592  -7.8592
    -7.8576  -7.8576  -5.3667  -5.3667   3.4349   3.4349   5.3614   5.3614
     5.4859   5.4859   9.0141   9.0141   9.9906   9.9906  12.4791  12.4791
    12.5002  12.5002

          k =-0.2000 0.2000 0.2000 (  1847 PWs)   bands (ev):

    -8.3438  -8.3438  -8.3375  -8.3319  -7.9152  -7.9152  -7.8680  -7.8680
    -7.8555  -7.8492  -5.5178  -5.5178   3.4133   3.4133   6.1080   6.1080
     6.3180   6.3217   8.2702   8.2702  11.0569  11.0569  11.1906  11.1931
    11.8594  11.8594

          k =-0.4000 0.4000 0.0000 (  1851 PWs)   bands (ev):

    -8.3679  -8.3483  -8.3269  -8.3241  -7.9421  -7.8998  -7.8773  -7.8659
    -7.8490  -7.8462  -4.8474  -4.8428   1.8930   1.9301   4.0415   4.1013
     5.9371   5.9375   9.3909   9.4455  11.6036  11.6430  11.6662  11.6702
    12.3276  12.3527

          k = 0.4000-0.4000 0.8000 (  1832 PWs)   bands (ev):

    -8.3838  -8.3511  -8.3246  -8.3162  -7.9567  -7.8918  -7.8812  -7.8676
    -7.8431  -7.8410  -3.9643  -3.9614   0.2699   0.3047   3.4996   3.5495
     5.1374   5.1385   9.1253   9.1488  11.5289  11.5623  12.5889  12.5896
    14.4161  14.4378

          k = 0.2000-0.2000 0.6000 (  1833 PWs)   bands (ev):

    -8.3748  -8.3516  -8.3264  -8.3195  -7.9452  -7.9051  -7.8683  -7.8654
    -7.8470  -7.8460  -4.4862  -4.4828   1.2225   1.2474   4.2603   4.3075
     4.9007   4.9077   9.0724   9.0881  10.7834  10.8383  12.4374  12.4792
    13.1739  13.1761

          k = 0.2000 0.2000 0.6000 (  1833 PWs)   bands (ev):

    -8.3748  -8.3516  -8.3264  -8.3195  -7.9452  -7.9051  -7.8683  -7.8654
    -7.8470  -7.8460  -4.4862  -4.4828   1.2225   1.2474   4.2603   4.3075
     4.9007   4.9077   9.0724   9.0881  10.7834  10.8383  12.4374  12.4792
    13.1739  13.1761

          k = 0.0000 0.4000 0.4000 (  1851 PWs)   bands (ev):

    -8.3679  -8.3483  -8.3269  -8.3241  -7.9421  -7.8998  -7.8773  -7.8659
    -7.8490  -7.8462  -4.8474  -4.8428   1.8930   1.9301   4.0415   4.1013
     5.9371   5.9375   9.3909   9.4455  11.6036  11.6430  11.6662  11.6702
    12.3276  12.3527

          k =-0.2000 0.6000 0.2000 (  1833 PWs)   bands (ev):

    -8.3748  -8.3516  -8.3264  -8.3195  -7.9452  -7.9051  -7.8683  -7.8654
    -7.8470  -7.8460  -4.4862  -4.4828   1.2225   1.2474   4.2603   4.3075
     4.9007   4.9077   9.0724   9.0881  10.7834  10.8383  12.4374  12.4792
    13.1739  13.1761

          k = 0.6000-0.2000 1.0000 (  1824 PWs)   bands (ev):

    -8.3917  -8.3525  -8.3192  -8.3113  -7.9665  -7.8912  -7.8704  -7.8617
    -7.8462  -7.8421  -3.7095  -3.7081   0.3257   0.3750   3.1053   3.1769
     4.0508   4.0899  10.5140  10.6302  10.8936  10.9192  11.8155  11.8783
    14.8652  14.8882

          k = 0.4000 0.0000 0.8000 (  1824 PWs)   bands (ev):

    -8.3917  -8.3525  -8.3192  -8.3113  -7.9665  -7.8912  -7.8704  -7.8617
    -7.8462  -7.8421  -3.7095  -3.7081   0.3257   0.3750   3.1053   3.1769
     4.0508   4.0899  10.5140  10.6302  10.8936  10.9192  11.8155  11.8783
    14.8652  14.8882

          k =-0.6000-0.6000-0.2000 (  1832 PWs)   bands (ev):

    -8.3838  -8.3511  -8.3246  -8.3162  -7.9567  -7.8918  -7.8812  -7.8676
    -7.8431  -7.8410  -3.9643  -3.9614   0.2699   0.3047   3.4996   3.5495
     5.1374   5.1385   9.1253   9.1488  11.5289  11.5623  12.5889  12.5896
    14.4161  14.4378

          k =-0.8000-0.4000-0.4000 (  1832 PWs)   bands (ev):

    -8.3838  -8.3511  -8.3246  -8.3162  -7.9567  -7.8918  -7.8812  -7.8676
    -7.8431  -7.8410  -3.9643  -3.9614   0.2699   0.3047   3.4996   3.5495
     5.1374   5.1385   9.1253   9.1488  11.5289  11.5623  12.5889  12.5896
    14.4161  14.4378

          k =-1.0000-0.2000-0.6000 (  1824 PWs)   bands (ev):

    -8.3917  -8.3525  -8.3192  -8.3113  -7.9665  -7.8912  -7.8704  -7.8617
    -7.8462  -7.8421  -3.7095  -3.7081   0.3257   0.3750   3.1053   3.1769
     4.0508   4.0899  10.5140  10.6302  10.8936  10.9192  11.8155  11.8783
    14.8652  14.8882

          k =-0.2000-1.0000 0.2000 (  1828 PWs)   bands (ev):

    -8.3911  -8.3586  -8.3190  -8.3101  -7.9599  -7.9039  -7.8613  -7.8566
    -7.8505  -7.8388  -3.4902  -3.4897   0.0066   0.0474   3.0542   3.1047
     4.3194   4.3222   8.5226   8.5235  10.4313  10.4755  15.0685  15.1249
    15.3149  15.3197

          k =-0.4000-0.8000-0.0000 (  1824 PWs)   bands (ev):

    -8.3917  -8.3525  -8.3192  -8.3113  -7.9665  -7.8912  -7.8704  -7.8617
    -7.8462  -7.8421  -3.7095  -3.7081   0.3257   0.3750   3.1053   3.1769
     4.0508   4.0899  10.5140  10.6302  10.8936  10.9192  11.8155  11.8783
    14.8652  14.8882

          k =-0.4000-0.4000 0.0000 (  1851 PWs)   bands (ev):

    -8.3679  -8.3483  -8.3269  -8.3241  -7.9421  -7.8998  -7.8773  -7.8659
    -7.8490  -7.8462  -4.8474  -4.8428   1.8930   1.9301   4.0415   4.1013
     5.9371   5.9375   9.3909   9.4455  11.6036  11.6430  11.6662  11.6702
    12.3276  12.3527

          k =-0.6000-0.2000-0.2000 (  1833 PWs)   bands (ev):

    -8.3748  -8.3516  -8.3264  -8.3195  -7.9452  -7.9051  -7.8683  -7.8654
    -7.8470  -7.8460  -4.4862  -4.4828   1.2225   1.2474   4.2603   4.3075
     4.9007   4.9077   9.0724   9.0881  10.7834  10.8383  12.4374  12.4792
    13.1739  13.1761

          k =-0.8000 0.0000-0.4000 (  1824 PWs)   bands (ev):

    -8.3917  -8.3525  -8.3192  -8.3113  -7.9665  -7.8912  -7.8704  -7.8617
    -7.8462  -7.8421  -3.7095  -3.7081   0.3257   0.3750   3.1053   3.1769
     4.0508   4.0899  10.5140  10.6302  10.8936  10.9192  11.8155  11.8783
    14.8652  14.8882

          k = 0.0000-0.8000 0.4000 (  1824 PWs)   bands (ev):

    -8.3917  -8.3525  -8.3192  -8.3113  -7.9665  -7.8912  -7.8704  -7.8617
    -7.8462  -7.8421  -3.7095  -3.7081   0.3257   0.3750   3.1053   3.1769
     4.0508   4.0899  10.5140  10.6302  10.8936  10.9192  11.8155  11.8783
    14.8652  14.8882

          k =-0.2000-0.6000 0.2000 (  1833 PWs)   bands (ev):

    -8.3748  -8.3516  -8.3264  -8.3195  -7.9452  -7.9051  -7.8683  -7.8654
    -7.8470  -7.8460  -4.4862  -4.4828   1.2225   1.2474   4.2603   4.3075
     4.9007   4.9077   9.0724   9.0881  10.7834  10.8383  12.4374  12.4792
    13.1739  13.1761

          k =-0.4000-0.4000 0.4000 (  1844 PWs)   bands (ev):

    -8.3564  -8.3564  -8.3339  -8.3304  -7.9194  -7.9194  -7.8788  -7.8788
    -7.8435  -7.8396  -4.4845  -4.4845   0.5880   0.5880   5.5522   5.5522
     5.7574   5.7594   7.7676   7.7676  11.3189  11.3189  11.4180  11.4192
    14.4737  14.4737

          k =-0.6000-0.2000 0.2000 (  1833 PWs)   bands (ev):

    -8.3748  -8.3516  -8.3264  -8.3195  -7.9452  -7.9051  -7.8683  -7.8654
    -7.8470  -7.8460  -4.4862  -4.4828   1.2225   1.2474   4.2603   4.3075
     4.9007   4.9077   9.0724   9.0881  10.7834  10.8383  12.4374  12.4792
    13.1739  13.1761

          k =-0.8000 0.0000 0.0000 (  1808 PWs)   bands (ev):

    -8.3728  -8.3728  -8.3174  -8.3174  -7.9299  -7.9299  -7.8577  -7.8577
    -7.8445  -7.8445  -3.9125  -3.9125   0.5189   0.5189   4.1685   4.1685
     4.2557   4.2557   8.1304   8.1304   8.8109   8.8109  15.7925  15.7925
    15.8631  15.8631

          k = 0.0000-0.8000 0.8000 (  1828 PWs)   bands (ev):

    -8.3911  -8.3586  -8.3190  -8.3101  -7.9599  -7.9039  -7.8613  -7.8566
    -7.8505  -7.8388  -3.4902  -3.4897   0.0066   0.0474   3.0542   3.1047
     4.3194   4.3222   8.5226   8.5235  10.4313  10.4755  15.0685  15.1249
    15.3149  15.3197

          k =-0.2000-0.6000 0.6000 (  1832 PWs)   bands (ev):

    -8.3838  -8.3511  -8.3246  -8.3162  -7.9567  -7.8918  -7.8812  -7.8676
    -7.8431  -7.8410  -3.9643  -3.9614   0.2699   0.3047   3.4996   3.5495
     5.1374   5.1385   9.1253   9.1488  11.5289  11.5623  12.5889  12.5896
    14.4161  14.4378

          k =-0.2000-0.2000 0.6000 (  1833 PWs)   bands (ev):

    -8.3748  -8.3516  -8.3264  -8.3195  -7.9452  -7.9051  -7.8683  -7.8654
    -7.8470  -7.8460  -4.4862  -4.4828   1.2225   1.2474   4.2603   4.3075
     4.9007   4.9077   9.0724   9.0881  10.7834  10.8383  12.4374  12.4792
    13.1739  13.1761

          k =-0.4000 0.0000 0.4000 (  1851 PWs)   bands (ev):

    -8.3679  -8.3483  -8.3269  -8.3241  -7.9421  -7.8998  -7.8773  -7.8659
    -7.8490  -7.8462  -4.8474  -4.8428   1.8930   1.9301   4.0415   4.1013
     5.9371   5.9375   9.3909   9.4455  11.6036  11.6430  11.6662  11.6702
    12.3276  12.3527

          k =-0.6000 0.2000 0.2000 (  1833 PWs)   bands (ev):

    -8.3748  -8.3516  -8.3264  -8.3195  -7.9452  -7.9051  -7.8683  -7.8654
    -7.8470  -7.8460  -4.4862  -4.4828   1.2225   1.2474   4.2603   4.3075
     4.9007   4.9077   9.0724   9.0881  10.7834  10.8383  12.4374  12.4792
    13.1739  13.1761

          k = 0.2000-0.6000 1.0000 (  1824 PWs)   bands (ev):

    -8.3917  -8.3525  -8.3192  -8.3113  -7.9665  -7.8912  -7.8704  -7.8617
    -7.8462  -7.8421  -3.7095  -3.7081   0.3257   0.3750   3.1053   3.1769
     4.0508   4.0899  10.5140  10.6302  10.8936  10.9192  11.8155  11.8783
    14.8652  14.8882

          k =-0.0000-0.4000 0.8000 (  1824 PWs)   bands (ev):

    -8.3917  -8.3525  -8.3192  -8.3113  -7.9665  -7.8912  -7.8704  -7.8617
    -7.8462  -7.8421  -3.7095  -3.7081   0.3257   0.3750   3.1053   3.1769
     4.0508   4.0899  10.5140  10.6302  10.8936  10.9192  11.8155  11.8783
    14.8652  14.8882

          k = 0.0000 0.0000 0.8000 (  1808 PWs)   bands (ev):

    -8.3728  -8.3728  -8.3174  -8.3174  -7.9299  -7.9299  -7.8577  -7.8577
    -7.8445  -7.8445  -3.9125  -3.9125   0.5189   0.5189   4.1685   4.1685
     4.2557   4.2557   8.1304   8.1304   8.8109   8.8109  15.7925  15.7926
    15.8631  15.8631

          k =-0.2000 0.2000 0.6000 (  1833 PWs)   bands (ev):

    -8.3748  -8.3516  -8.3264  -8.3195  -7.9452  -7.9051  -7.8683  -7.8654
    -7.8470  -7.8460  -4.4862  -4.4828   1.2225   1.2474   4.2603   4.3075
     4.9007   4.9077   9.0724   9.0881  10.7834  10.8383  12.4374  12.4792
    13.1739  13.1761

          k =-0.4000 0.4000 0.4000 (  1844 PWs)   bands (ev):

    -8.3564  -8.3564  -8.3339  -8.3304  -7.9194  -7.9194  -7.8788  -7.8788
    -7.8435  -7.8396  -4.4845  -4.4845   0.5880   0.5880   5.5522   5.5522
     5.7574   5.7594   7.7676   7.7676  11.3189  11.3189  11.4180  11.4192
    14.4737  14.4737

          k = 0.4000-0.4000 1.2000 (  1832 PWs)   bands (ev):

    -8.3838  -8.3511  -8.3246  -8.3162  -7.9567  -7.8918  -7.8812  -7.8676
    -7.8431  -7.8410  -3.9643  -3.9614   0.2699   0.3047   3.4996   3.5495
     5.1374   5.1385   9.1253   9.1488  11.5289  11.5623  12.5889  12.5896
    14.4161  14.4378

          k = 0.2000-0.2000 1.0000 (  1828 PWs)   bands (ev):

    -8.3911  -8.3586  -8.3190  -8.3101  -7.9599  -7.9039  -7.8613  -7.8566
    -7.8505  -7.8388  -3.4902  -3.4897   0.0066   0.0474   3.0542   3.1047
     4.3194   4.3222   8.5226   8.5235  10.4313  10.4755  15.0685  15.1249
    15.3149  15.3197

          k =-0.8000-0.8000 0.0000 (  1828 PWs)   bands (ev):

    -8.3911  -8.3586  -8.3190  -8.3101  -7.9599  -7.9039  -7.8613  -7.8566
    -7.8505  -7.8388  -3.4902  -3.4897   0.0066   0.0474   3.0542   3.1047
     4.3194   4.3222   8.5226   8.5235  10.4313  10.4755  15.0685  15.1249
    15.3149  15.3197

          k =-1.0000-0.6000-0.2000 (  1824 PWs)   bands (ev):

    -8.3917  -8.3525  -8.3192  -8.3113  -7.9665  -7.8912  -7.8704  -7.8617
    -7.8462  -7.8421  -3.7095  -3.7081   0.3257   0.3750   3.1053   3.1769
     4.0508   4.0899  10.5140  10.6302  10.8936  10.9192  11.8155  11.8783
    14.8652  14.8882

          k =-1.2000-0.4000-0.4000 (  1832 PWs)   bands (ev):

    -8.3838  -8.3511  -8.3246  -8.3162  -7.9567  -7.8918  -7.8812  -7.8676
    -7.8431  -7.8410  -3.9643  -3.9614   0.2699   0.3047   3.4996   3.5495
     5.1374   5.1385   9.1253   9.1488  11.5289  11.5623  12.5889  12.5896
    14.4161  14.4378

          k =-0.4000-1.2000 0.4000 (  1832 PWs)   bands (ev):

    -8.3838  -8.3511  -8.3246  -8.3162  -7.9567  -7.8918  -7.8812  -7.8676
    -7.8431  -7.8410  -3.9643  -3.9614   0.2699   0.3047   3.4996   3.5495
     5.1374   5.1385   9.1253   9.1488  11.5289  11.5623  12.5889  12.5896
    14.4161  14.4378

          k =-0.6000-1.0000 0.2000 (  1824 PWs)   bands (ev):

    -8.3917  -8.3525  -8.3192  -8.3113  -7.9665  -7.8912  -7.8704  -7.8617
    -7.8462  -7.8421  -3.7095  -3.7081   0.3257   0.3750   3.1053   3.1769
     4.0508   4.0899  10.5140  10.6302  10.8936  10.9192  11.8155  11.8783
    14.8652  14.8882

          k =-0.6000-0.6000 0.2000 (  1832 PWs)   bands (ev):

    -8.3838  -8.3511  -8.3246  -8.3162  -7.9567  -7.8918  -7.8812  -7.8676
    -7.8431  -7.8410  -3.9643  -3.9614   0.2699   0.3047   3.4996   3.5495
     5.1374   5.1385   9.1253   9.1488  11.5289  11.5623  12.5889  12.5896
    14.4161  14.4378

          k =-0.8000-0.4000 0.0000 (  1824 PWs)   bands (ev):

    -8.3917  -8.3525  -8.3192  -8.3113  -7.9665  -7.8912  -7.8704  -7.8617
    -7.8462  -7.8421  -3.7095  -3.7081   0.3257   0.3750   3.1053   3.1769
     4.0508   4.0899  10.5140  10.6302  10.8936  10.9192  11.8155  11.8783
    14.8652  14.8882

          k =-1.0000-0.2000-0.2000 (  1828 PWs)   bands (ev):

    -8.3911  -8.3586  -8.3190  -8.3101  -7.9599  -7.9039  -7.8613  -7.8566
    -7.8505  -7.8388  -3.4902  -3.4897   0.0066   0.0474   3.0542   3.1047
     4.3194   4.3222   8.5226   8.5235  10.4313  10.4755  15.0685  15.1249
    15.3149  15.3197

          k =-0.2000-1.0000 0.6000 (  1824 PWs)   bands (ev):

    -8.3917  -8.3525  -8.3192  -8.3113  -7.9665  -7.8912  -7.8704  -7.8617
    -7.8462  -7.8421  -3.7095  -3.7081   0.3257   0.3750   3.1053   3.1769
     4.0508   4.0899  10.5140  10.6302  10.8936  10.9192  11.8155  11.8783
    14.8652  14.8882

          k =-0.4000-0.8000 0.4000 (  1832 PWs)   bands (ev):

    -8.3838  -8.3511  -8.3246  -8.3162  -7.9567  -7.8918  -7.8812  -7.8676
    -7.8431  -7.8410  -3.9643  -3.9614   0.2699   0.3047   3.4996   3.5495
     5.1374   5.1385   9.1253   9.1488  11.5289  11.5623  12.5889  12.5896
    14.4161  14.4378

     the Fermi energy is     7.0293 ev

!    total energy              =    -190.99988284 Ry
     estimated scf accuracy    <          2.8E-09 Ry
     smearing contrib. (-TS)   =      -0.00000000 Ry
     internal energy E=F+TS    =    -190.99988284 Ry

     The total energy is F=E-TS. E is the sum of the following terms:
     one-electron contribution =    -112.09682147 Ry
     hartree contribution      =      71.81274635 Ry
     xc contribution           =     -57.90923409 Ry
     ewald contribution        =     -92.80657363 Ry

     convergence has been achieved in   9 iterations

     Writing all to output data dir ./GaAs.save/

     init_run     :     15.96s CPU      4.43s WALL (       1 calls)
     electrons    :    453.13s CPU    102.55s WALL (       1 calls)

     Called by init_run:
     wfcinit      :     14.58s CPU      3.56s WALL (       1 calls)
     potinit      :      0.04s CPU      0.05s WALL (       1 calls)
     hinit0       :      0.61s CPU      0.61s WALL (       1 calls)

     Called by electrons:
     c_bands      :    363.03s CPU     82.26s WALL (      10 calls)
     sum_band     :     80.20s CPU     17.69s WALL (      10 calls)
     v_of_rho     :      1.12s CPU      0.41s WALL (      10 calls)
     newd         :      8.29s CPU      2.11s WALL (      10 calls)
     mix_rho      :      0.78s CPU      0.17s WALL (      10 calls)

     Called by c_bands:
     init_us_2    :      5.03s CPU      0.73s WALL (    1323 calls)
     init_us_2:cp :      4.98s CPU      0.73s WALL (    1323 calls)
     cegterg      :    333.64s CPU     78.02s WALL (     630 calls)

     Called by *egterg:
     cdiaghg      :      9.31s CPU      1.25s WALL (    1858 calls)
     h_psi        :    284.03s CPU     71.65s WALL (    1984 calls)
     s_psi        :      6.06s CPU      1.24s WALL (    1984 calls)
     g_psi        :      1.25s CPU      0.24s WALL (    1291 calls)

     Called by h_psi:
     h_psi:calbec :      7.52s CPU      2.02s WALL (    1984 calls)
     vloc_psi     :    270.17s CPU     68.14s WALL (    1984 calls)
     add_vuspsi   :      4.99s CPU      1.23s WALL (    1984 calls)

     General routines
     calbec       :      9.41s CPU      2.59s WALL (    2614 calls)
     fft          :      1.61s CPU      0.46s WALL (     240 calls)
     ffts         :      0.21s CPU      0.05s WALL (      80 calls)
     fftw         :    264.91s CPU     65.06s WALL (  189224 calls)
     interpolate  :      0.32s CPU      0.11s WALL (      40 calls)


     PWSCF        :   7m51.14s CPU   1m47.57s WALL


   This run was terminated on:  18:47:40  12May2024            

=------------------------------------------------------------------------------=
   JOB DONE.
=------------------------------------------------------------------------------=
