
     Program PWSCF v.7.2 starts on 12May2024 at 18:39:56 

     This program is part of the open-source Quantum ESPRESSO suite
     for quantum simulation of materials; please cite
         "P. Giannozzi et al., J. Phys.:Condens. Matter 21 395502 (2009);
         "P. Giannozzi et al., J. Phys.:Condens. Matter 29 465901 (2017);
         "P. Giannozzi et al., J. Chem. Phys. 152 154105 (2020);
          URL http://www.quantum-espresso.org", 
     in publications or presentations arising from this work. More details at
     http://www.quantum-espresso.org/quote

     Serial version
     0 MiB available memory on the printing compute node when the environment starts

     Waiting for input...
     Reading input from standard input

     Current dimensions of program PWSCF are:
     Max number of different atomic species (ntypx) = 10
     Max number of k-points (npk) =  40000
     Max angular momentum in pseudopotentials (lmaxx) =  4
     file Ga.rel-pbe-dn-rrkjus_psl.0.2.UPF: wavefunction(s)  4S 3D 3D renormalized


     G-vector sticks info
     --------------------
     sticks:   dense  smooth     PW     G-vecs:    dense   smooth      PW
     Sum        1495     745    235                38013    13371    2277

     Using Slab Decomposition



     bravais-lattice index     =            2
     lattice parameter (alat)  =      10.3893  a.u.
     unit-cell volume          =     280.3518 (a.u.)^3
     number of atoms/cell      =            2
     number of atomic types    =            2
     number of electrons       =        18.00
     number of Kohn-Sham states=           26
     kinetic-energy cutoff     =      50.0000  Ry
     charge density cutoff     =     400.0000  Ry
     scf convergence threshold =      1.0E-08
     mixing beta               =       0.3000
     number of iterations used =            8  plain     mixing
     Exchange-correlation= PBE
                           (   1   4   3   4   0   0   0)
     Non magnetic calculation with spin-orbit


     celldm(1)=  10.389336  celldm(2)=   0.000000  celldm(3)=   0.000000
     celldm(4)=   0.000000  celldm(5)=   0.000000  celldm(6)=   0.000000

     crystal axes: (cart. coord. in units of alat)
               a(1) = (  -0.500000   0.000000   0.500000 )  
               a(2) = (   0.000000   0.500000   0.500000 )  
               a(3) = (  -0.500000   0.500000   0.000000 )  

     reciprocal axes: (cart. coord. in units 2 pi/alat)
               b(1) = ( -1.000000 -1.000000  1.000000 )  
               b(2) = (  1.000000  1.000000  1.000000 )  
               b(3) = ( -1.000000  1.000000 -1.000000 )  


     PseudoPot. # 1 for As read from file:
     ../pseudopotential/As.rel-pbe-n-rrkjus_psl.0.2.UPF
     MD5 check sum: fd1d9cb43fef956eb1cdd0c60ce90062
     Pseudo is Ultrasoft + core correction, Zval =  5.0
     Generated using "atomic" code by A. Dal Corso  v.5.0.2 svn rev. 9415
     Using radial grid of 1209 points,  6 beta functions with: 
                l(1) =   0
                l(2) =   0
                l(3) =   1
                l(4) =   1
                l(5) =   1
                l(6) =   1
     Q(r) pseudized with 0 coefficients 


     PseudoPot. # 2 for Ga read from file:
     ../pseudopotential/Ga.rel-pbe-dn-rrkjus_psl.0.2.UPF
     MD5 check sum: b82f27152fdba9c8aaf7d704465ad383
     Pseudo is Ultrasoft + core correction, Zval = 13.0
     Generated using "atomic" code by A. Dal Corso  v.5.0.2 svn rev. 9415
     Using radial grid of 1205 points, 10 beta functions with: 
                l(1) =   0
                l(2) =   0
                l(3) =   1
                l(4) =   1
                l(5) =   1
                l(6) =   1
                l(7) =   2
                l(8) =   2
                l(9) =   2
               l(10) =   2
     Q(r) pseudized with 0 coefficients 


     atomic species   valence    mass     pseudopotential
        As             5.00    74.92160     As( 1.00)
        Ga            13.00    69.72000     Ga( 1.00)

     No symmetry found



   Cartesian axes

     site n.     atom                  positions (alat units)
         1           Ga  tau(   1) = (   0.0000000   0.0000000   0.0000000  )
         2           As  tau(   2) = (   0.2500000   0.2500000   0.2500000  )

     number of k points=    63  Gaussian smearing, width (Ry)=  0.0020
                       cart. coord. in units 2pi/alat
        k(    1) = (   0.0000000   0.0000000   0.0000000), wk =   0.0080000
        k(    2) = (  -0.2000000   0.2000000  -0.2000000), wk =   0.0160000
        k(    3) = (  -0.4000000   0.4000000  -0.4000000), wk =   0.0160000
        k(    4) = (   0.2000000   0.2000000   0.2000000), wk =   0.0160000
        k(    5) = (   0.0000000   0.4000000   0.0000000), wk =   0.0160000
        k(    6) = (  -0.2000000   0.6000000  -0.2000000), wk =   0.0160000
        k(    7) = (   0.6000000  -0.2000000   0.6000000), wk =   0.0160000
        k(    8) = (   0.4000000   0.0000000   0.4000000), wk =   0.0160000
        k(    9) = (   0.4000000   0.4000000   0.4000000), wk =   0.0160000
        k(   10) = (   0.2000000   0.6000000   0.2000000), wk =   0.0160000
        k(   11) = (   0.0000000   0.8000000   0.0000000), wk =   0.0160000
        k(   12) = (   0.8000000   0.0000000   0.8000000), wk =   0.0160000
        k(   13) = (   0.6000000   0.2000000   0.6000000), wk =   0.0160000
        k(   14) = (  -0.2000000  -0.2000000   0.2000000), wk =   0.0160000
        k(   15) = (  -0.4000000   0.0000000   0.0000000), wk =   0.0160000
        k(   16) = (  -0.6000000   0.2000000  -0.2000000), wk =   0.0160000
        k(   17) = (   0.2000000  -0.6000000   0.6000000), wk =   0.0160000
        k(   18) = (  -0.0000000  -0.4000000   0.4000000), wk =   0.0160000
        k(   19) = (   0.0000000   0.0000000   0.4000000), wk =   0.0160000
        k(   20) = (  -0.2000000   0.2000000   0.2000000), wk =   0.0160000
        k(   21) = (  -0.4000000   0.4000000   0.0000000), wk =   0.0160000
        k(   22) = (   0.4000000  -0.4000000   0.8000000), wk =   0.0160000
        k(   23) = (   0.2000000  -0.2000000   0.6000000), wk =   0.0160000
        k(   24) = (   0.2000000   0.2000000   0.6000000), wk =   0.0160000
        k(   25) = (   0.0000000   0.4000000   0.4000000), wk =   0.0160000
        k(   26) = (  -0.2000000   0.6000000   0.2000000), wk =   0.0160000
        k(   27) = (   0.6000000  -0.2000000   1.0000000), wk =   0.0160000
        k(   28) = (   0.4000000   0.0000000   0.8000000), wk =   0.0160000
        k(   29) = (  -0.6000000  -0.6000000  -0.2000000), wk =   0.0160000
        k(   30) = (  -0.8000000  -0.4000000  -0.4000000), wk =   0.0160000
        k(   31) = (  -1.0000000  -0.2000000  -0.6000000), wk =   0.0160000
        k(   32) = (  -0.2000000  -1.0000000   0.2000000), wk =   0.0160000
        k(   33) = (  -0.4000000  -0.8000000  -0.0000000), wk =   0.0160000
        k(   34) = (  -0.4000000  -0.4000000   0.0000000), wk =   0.0160000
        k(   35) = (  -0.6000000  -0.2000000  -0.2000000), wk =   0.0160000
        k(   36) = (  -0.8000000   0.0000000  -0.4000000), wk =   0.0160000
        k(   37) = (   0.0000000  -0.8000000   0.4000000), wk =   0.0160000
        k(   38) = (  -0.2000000  -0.6000000   0.2000000), wk =   0.0160000
        k(   39) = (  -0.4000000  -0.4000000   0.4000000), wk =   0.0160000
        k(   40) = (  -0.6000000  -0.2000000   0.2000000), wk =   0.0160000
        k(   41) = (  -0.8000000   0.0000000   0.0000000), wk =   0.0160000
        k(   42) = (   0.0000000  -0.8000000   0.8000000), wk =   0.0160000
        k(   43) = (  -0.2000000  -0.6000000   0.6000000), wk =   0.0160000
        k(   44) = (  -0.2000000  -0.2000000   0.6000000), wk =   0.0160000
        k(   45) = (  -0.4000000   0.0000000   0.4000000), wk =   0.0160000
        k(   46) = (  -0.6000000   0.2000000   0.2000000), wk =   0.0160000
        k(   47) = (   0.2000000  -0.6000000   1.0000000), wk =   0.0160000
        k(   48) = (  -0.0000000  -0.4000000   0.8000000), wk =   0.0160000
        k(   49) = (   0.0000000   0.0000000   0.8000000), wk =   0.0160000
        k(   50) = (  -0.2000000   0.2000000   0.6000000), wk =   0.0160000
        k(   51) = (  -0.4000000   0.4000000   0.4000000), wk =   0.0160000
        k(   52) = (   0.4000000  -0.4000000   1.2000000), wk =   0.0160000
        k(   53) = (   0.2000000  -0.2000000   1.0000000), wk =   0.0160000
        k(   54) = (  -0.8000000  -0.8000000   0.0000000), wk =   0.0160000
        k(   55) = (  -1.0000000  -0.6000000  -0.2000000), wk =   0.0160000
        k(   56) = (  -1.2000000  -0.4000000  -0.4000000), wk =   0.0160000
        k(   57) = (  -0.4000000  -1.2000000   0.4000000), wk =   0.0160000
        k(   58) = (  -0.6000000  -1.0000000   0.2000000), wk =   0.0160000
        k(   59) = (  -0.6000000  -0.6000000   0.2000000), wk =   0.0160000
        k(   60) = (  -0.8000000  -0.4000000   0.0000000), wk =   0.0160000
        k(   61) = (  -1.0000000  -0.2000000  -0.2000000), wk =   0.0160000
        k(   62) = (  -0.2000000  -1.0000000   0.6000000), wk =   0.0160000
        k(   63) = (  -0.4000000  -0.8000000   0.4000000), wk =   0.0160000

     Dense  grid:    38013 G-vectors     FFT dimensions: (  48,  48,  48)

     Smooth grid:    13371 G-vectors     FFT dimensions: (  36,  36,  36)

     Estimated max dynamical RAM per process >     520.87 MB

     Initial potential from superposition of free atoms

     starting charge      17.9971, renormalised to      18.0000
     Starting wfcs are   26 randomized atomic wfcs

     total cpu time spent up to now is        4.7 secs

     Self-consistent Calculation

     iteration #  1     ecut=    50.00 Ry     beta= 0.30
     Davidson diagonalization with overlap
     ethr =  1.00E-02,  avg # of iterations =  4.0

     Threshold (ethr) on eigenvalues was too large:
     Diagonalizing with lowered threshold

     Davidson diagonalization with overlap
     ethr =  2.89E-04,  avg # of iterations =  2.4

     total cpu time spent up to now is       25.1 secs

     total energy              =    -190.98682613 Ry
     estimated scf accuracy    <       0.05177936 Ry

     iteration #  2     ecut=    50.00 Ry     beta= 0.30
     Davidson diagonalization with overlap
     ethr =  2.88E-04,  avg # of iterations =  1.1

     total cpu time spent up to now is       33.8 secs

     total energy              =    -190.98624539 Ry
     estimated scf accuracy    <       0.01533787 Ry

     iteration #  3     ecut=    50.00 Ry     beta= 0.30
     Davidson diagonalization with overlap
     ethr =  8.52E-05,  avg # of iterations =  2.0

     total cpu time spent up to now is       42.9 secs

     total energy              =    -190.98716498 Ry
     estimated scf accuracy    <       0.00226646 Ry

     iteration #  4     ecut=    50.00 Ry     beta= 0.30
     Davidson diagonalization with overlap
     ethr =  1.26E-05,  avg # of iterations =  2.3

     total cpu time spent up to now is       53.2 secs

     total energy              =    -190.98728954 Ry
     estimated scf accuracy    <       0.00006801 Ry

     iteration #  5     ecut=    50.00 Ry     beta= 0.30
     Davidson diagonalization with overlap
     ethr =  3.78E-07,  avg # of iterations =  2.8

     total cpu time spent up to now is       64.8 secs

     total energy              =    -190.98731534 Ry
     estimated scf accuracy    <       0.00005263 Ry

     iteration #  6     ecut=    50.00 Ry     beta= 0.30
     Davidson diagonalization with overlap
     ethr =  2.92E-07,  avg # of iterations =  1.0

     total cpu time spent up to now is       73.5 secs

     total energy              =    -190.98731366 Ry
     estimated scf accuracy    <       0.00000802 Ry

     iteration #  7     ecut=    50.00 Ry     beta= 0.30
     Davidson diagonalization with overlap
     ethr =  4.45E-08,  avg # of iterations =  2.0

     total cpu time spent up to now is       84.6 secs

     total energy              =    -190.98731705 Ry
     estimated scf accuracy    <       0.00000160 Ry

     iteration #  8     ecut=    50.00 Ry     beta= 0.30
     Davidson diagonalization with overlap
     ethr =  8.88E-09,  avg # of iterations =  1.0

     total cpu time spent up to now is       93.3 secs

     total energy              =    -190.98731663 Ry
     estimated scf accuracy    <       0.00000057 Ry

     iteration #  9     ecut=    50.00 Ry     beta= 0.30
     Davidson diagonalization with overlap
     ethr =  3.18E-09,  avg # of iterations =  2.0

     total cpu time spent up to now is      105.3 secs

     total energy              =    -190.98731684 Ry
     estimated scf accuracy    <       0.00000017 Ry

     iteration # 10     ecut=    50.00 Ry     beta= 0.30
     Davidson diagonalization with overlap
     ethr =  9.61E-10,  avg # of iterations =  2.0

     total cpu time spent up to now is      115.7 secs

     End of self-consistent calculation

          k = 0.0000 0.0000 0.0000 (  1687 PWs)   bands (ev):

    -7.3590  -7.3590  -7.3590  -7.3590  -6.9431  -6.9431  -6.8736  -6.8736
    -6.8736  -6.8736  -5.5017  -5.5017   7.6365   7.6365   7.9834   7.9834
     7.9834   7.9834   9.0477   9.0477  11.4597  11.4597  11.6594  11.6594
    11.6594  11.6594

          k =-0.2000 0.2000-0.2000 (  1669 PWs)   bands (ev):

    -7.3723  -7.3723  -7.3601  -7.3523  -6.9514  -6.9514  -6.8869  -6.8869
    -6.8697  -6.8610  -4.9855  -4.9855   4.4551   4.4551   7.1853   7.1853
     7.4023   7.4067   9.7634   9.7634  12.2960  12.2960  12.4330  12.4362
    13.4025  13.4025

          k =-0.4000 0.4000-0.4000 (  1673 PWs)   bands (ev):

    -7.3942  -7.3942  -7.3550  -7.3502  -6.9545  -6.9545  -6.9014  -6.9014
    -6.8537  -6.8484  -3.7815  -3.7815   1.2949   1.2949   6.5652   6.5652
     6.7788   6.7812   9.1852   9.1852  12.5065  12.5065  12.6027  12.6040
    15.7956  15.7956

          k = 0.2000 0.2000 0.2000 (  1669 PWs)   bands (ev):

    -7.3723  -7.3723  -7.3601  -7.3523  -6.9514  -6.9514  -6.8869  -6.8869
    -6.8697  -6.8610  -4.9855  -4.9855   4.4551   4.4551   7.1853   7.1853
     7.4023   7.4067   9.7634   9.7634  12.2960  12.2960  12.4330  12.4362
    13.4025  13.4025

          k = 0.0000 0.4000 0.0000 (  1664 PWs)   bands (ev):

    -7.3827  -7.3827  -7.3479  -7.3479  -6.9557  -6.9557  -6.8746  -6.8746
    -6.8731  -6.8731  -4.8158  -4.8158   4.5996   4.5996   6.3327   6.3327
     6.4547   6.4547  10.1340  10.1340  11.5442  11.5442  13.8895  13.8895
    13.9099  13.9099

          k =-0.2000 0.6000-0.2000 (  1685 PWs)   bands (ev):

    -7.4182  -7.3849  -7.3451  -7.3353  -6.9901  -6.9340  -6.8865  -6.8846
    -6.8592  -6.8568  -3.8010  -3.7954   2.0942   2.1190   5.1401   5.1810
     5.8148   5.8211  10.2696  10.2752  12.2163  12.2797  13.7100  13.7552
    14.5724  14.5752

          k = 0.6000-0.2000 0.6000 (  1669 PWs)   bands (ev):

    -7.4309  -7.3840  -7.3424  -7.3313  -7.0049  -6.9161  -6.9036  -6.8874
    -6.8534  -6.8504  -3.1668  -3.1615   0.9735   1.0085   4.3026   4.3462
     6.0856   6.0856  10.4091  10.4242  12.8815  12.9160  13.8993  13.8999
    16.0018  16.0352

          k = 0.4000 0.0000 0.4000 (  1666 PWs)   bands (ev):

    -7.4088  -7.3783  -7.3454  -7.3421  -6.9888  -6.9284  -6.8986  -6.8844
    -6.8610  -6.8574  -4.2184  -4.2107   2.8466   2.8852   4.8555   4.9106
     6.9877   6.9896  10.8789  10.9239  12.9266  12.9355  12.9908  13.0194
    13.6754  13.6997

          k = 0.4000 0.4000 0.4000 (  1673 PWs)   bands (ev):

    -7.3942  -7.3942  -7.3550  -7.3502  -6.9545  -6.9545  -6.9014  -6.9014
    -6.8537  -6.8484  -3.7815  -3.7815   1.2949   1.2949   6.5652   6.5652
     6.7788   6.7812   9.1852   9.1852  12.5065  12.5065  12.6027  12.6040
    15.7956  15.7956

          k = 0.2000 0.6000 0.2000 (  1685 PWs)   bands (ev):

    -7.4182  -7.3849  -7.3451  -7.3353  -6.9901  -6.9340  -6.8865  -6.8846
    -6.8592  -6.8568  -3.8010  -3.7954   2.0942   2.1190   5.1401   5.1810
     5.8148   5.8211  10.2696  10.2752  12.2163  12.2797  13.7100  13.7552
    14.5724  14.5752

          k = 0.0000 0.8000 0.0000 (  1692 PWs)   bands (ev):

    -7.4160  -7.4160  -7.3328  -7.3328  -6.9638  -6.9638  -6.8751  -6.8751
    -6.8543  -6.8543  -3.1332  -3.1332   1.3476   1.3476   5.0047   5.0047
     5.0905   5.0905   9.1366   9.1366   9.8979   9.8979  17.5261  17.5261
    17.6057  17.6057

          k = 0.8000 0.0000 0.8000 (  1672 PWs)   bands (ev):

    -7.4402  -7.3956  -7.3350  -7.3223  -7.0055  -6.9296  -6.8799  -6.8705
    -6.8645  -6.8470  -2.6002  -2.6001   0.7338   0.7785   3.7382   3.7853
     5.1688   5.1708   9.5755   9.5780  11.6853  11.7232  16.7807  16.8483
    16.9552  16.9570

          k = 0.6000 0.2000 0.6000 (  1669 PWs)   bands (ev):

    -7.4309  -7.3840  -7.3424  -7.3313  -7.0049  -6.9161  -6.9036  -6.8874
    -6.8534  -6.8504  -3.1668  -3.1615   0.9735   1.0085   4.3026   4.3462
     6.0856   6.0856  10.4091  10.4242  12.8815  12.9160  13.8993  13.8999
    16.0018  16.0352

          k =-0.2000-0.2000 0.2000 (  1669 PWs)   bands (ev):

    -7.3723  -7.3723  -7.3601  -7.3523  -6.9514  -6.9514  -6.8869  -6.8869
    -6.8697  -6.8610  -4.9855  -4.9855   4.4551   4.4551   7.1853   7.1853
     7.4023   7.4067   9.7634   9.7634  12.2960  12.2960  12.4330  12.4362
    13.4025  13.4025

          k =-0.4000 0.0000 0.0000 (  1664 PWs)   bands (ev):

    -7.3827  -7.3827  -7.3479  -7.3479  -6.9557  -6.9557  -6.8746  -6.8746
    -6.8731  -6.8731  -4.8158  -4.8158   4.5996   4.5996   6.3327   6.3327
     6.4547   6.4547  10.1340  10.1340  11.5442  11.5442  13.8895  13.8895
    13.9099  13.9099

          k =-0.6000 0.2000-0.2000 (  1685 PWs)   bands (ev):

    -7.4182  -7.3849  -7.3451  -7.3353  -6.9901  -6.9340  -6.8865  -6.8846
    -6.8592  -6.8568  -3.8010  -3.7954   2.0942   2.1190   5.1401   5.1810
     5.8148   5.8211  10.2696  10.2752  12.2163  12.2797  13.7100  13.7552
    14.5724  14.5752

          k = 0.2000-0.6000 0.6000 (  1669 PWs)   bands (ev):

    -7.4309  -7.3840  -7.3424  -7.3313  -7.0049  -6.9161  -6.9036  -6.8874
    -6.8534  -6.8504  -3.1668  -3.1615   0.9735   1.0085   4.3026   4.3462
     6.0856   6.0856  10.4091  10.4242  12.8815  12.9160  13.8993  13.8999
    16.0018  16.0352

          k =-0.0000-0.4000 0.4000 (  1666 PWs)   bands (ev):

    -7.4088  -7.3783  -7.3454  -7.3421  -6.9888  -6.9284  -6.8986  -6.8844
    -6.8610  -6.8574  -4.2184  -4.2107   2.8466   2.8852   4.8555   4.9106
     6.9877   6.9896  10.8789  10.9239  12.9266  12.9355  12.9908  13.0194
    13.6754  13.6997

          k = 0.0000 0.0000 0.4000 (  1664 PWs)   bands (ev):

    -7.3827  -7.3827  -7.3479  -7.3479  -6.9557  -6.9557  -6.8746  -6.8746
    -6.8731  -6.8731  -4.8158  -4.8158   4.5996   4.5996   6.3327   6.3327
     6.4547   6.4547  10.1340  10.1340  11.5442  11.5442  13.8895  13.8895
    13.9099  13.9099

          k =-0.2000 0.2000 0.2000 (  1669 PWs)   bands (ev):

    -7.3723  -7.3723  -7.3601  -7.3523  -6.9514  -6.9514  -6.8869  -6.8869
    -6.8697  -6.8610  -4.9855  -4.9855   4.4551   4.4551   7.1853   7.1853
     7.4023   7.4067   9.7634   9.7634  12.2960  12.2960  12.4330  12.4362
    13.4025  13.4025

          k =-0.4000 0.4000 0.0000 (  1666 PWs)   bands (ev):

    -7.4088  -7.3783  -7.3454  -7.3421  -6.9888  -6.9284  -6.8986  -6.8844
    -6.8610  -6.8574  -4.2184  -4.2107   2.8466   2.8852   4.8555   4.9106
     6.9877   6.9896  10.8789  10.9239  12.9266  12.9355  12.9908  13.0194
    13.6754  13.6997

          k = 0.4000-0.4000 0.8000 (  1669 PWs)   bands (ev):

    -7.4309  -7.3840  -7.3424  -7.3313  -7.0049  -6.9161  -6.9036  -6.8874
    -6.8534  -6.8504  -3.1668  -3.1615   0.9735   1.0085   4.3026   4.3462
     6.0856   6.0856  10.4091  10.4242  12.8815  12.9160  13.8993  13.8999
    16.0018  16.0352

          k = 0.2000-0.2000 0.6000 (  1685 PWs)   bands (ev):

    -7.4182  -7.3849  -7.3451  -7.3353  -6.9901  -6.9340  -6.8865  -6.8846
    -6.8592  -6.8568  -3.8010  -3.7954   2.0942   2.1190   5.1401   5.1810
     5.8148   5.8211  10.2696  10.2752  12.2163  12.2797  13.7100  13.7552
    14.5724  14.5752

          k = 0.2000 0.2000 0.6000 (  1685 PWs)   bands (ev):

    -7.4182  -7.3849  -7.3451  -7.3353  -6.9901  -6.9340  -6.8865  -6.8846
    -6.8592  -6.8568  -3.8010  -3.7954   2.0942   2.1190   5.1401   5.1810
     5.8148   5.8211  10.2696  10.2752  12.2163  12.2797  13.7100  13.7552
    14.5724  14.5752

          k = 0.0000 0.4000 0.4000 (  1666 PWs)   bands (ev):

    -7.4088  -7.3783  -7.3454  -7.3421  -6.9888  -6.9284  -6.8986  -6.8844
    -6.8610  -6.8574  -4.2184  -4.2107   2.8466   2.8852   4.8555   4.9106
     6.9877   6.9896  10.8789  10.9239  12.9266  12.9355  12.9908  13.0194
    13.6754  13.6997

          k =-0.2000 0.6000 0.2000 (  1685 PWs)   bands (ev):

    -7.4182  -7.3849  -7.3451  -7.3353  -6.9901  -6.9340  -6.8865  -6.8846
    -6.8592  -6.8568  -3.8010  -3.7954   2.0942   2.1190   5.1401   5.1810
     5.8148   5.8211  10.2696  10.2752  12.2163  12.2797  13.7100  13.7552
    14.5724  14.5752

          k = 0.6000-0.2000 1.0000 (  1677 PWs)   bands (ev):

    -7.4409  -7.3862  -7.3348  -7.3241  -7.0171  -6.9144  -6.8888  -6.8801
    -6.8579  -6.8519  -2.8727  -2.8694   1.1129   1.1662   3.8072   3.8760
     4.8493   4.8862  11.8306  11.9040  12.2773  12.3317  13.0402  13.1037
    16.4649  16.4894

          k = 0.4000 0.0000 0.8000 (  1677 PWs)   bands (ev):

    -7.4409  -7.3862  -7.3348  -7.3241  -7.0171  -6.9144  -6.8888  -6.8801
    -6.8579  -6.8519  -2.8727  -2.8694   1.1129   1.1662   3.8072   3.8760
     4.8493   4.8862  11.8306  11.9040  12.2773  12.3317  13.0402  13.1037
    16.4649  16.4894

          k =-0.6000-0.6000-0.2000 (  1669 PWs)   bands (ev):

    -7.4309  -7.3840  -7.3424  -7.3313  -7.0049  -6.9161  -6.9036  -6.8874
    -6.8534  -6.8504  -3.1668  -3.1615   0.9735   1.0085   4.3026   4.3462
     6.0856   6.0856  10.4091  10.4242  12.8815  12.9160  13.8993  13.8999
    16.0018  16.0352

          k =-0.8000-0.4000-0.4000 (  1669 PWs)   bands (ev):

    -7.4309  -7.3840  -7.3424  -7.3313  -7.0049  -6.9161  -6.9036  -6.8874
    -6.8534  -6.8504  -3.1668  -3.1615   0.9735   1.0085   4.3026   4.3462
     6.0856   6.0856  10.4091  10.4242  12.8815  12.9160  13.8993  13.8999
    16.0018  16.0352

          k =-1.0000-0.2000-0.6000 (  1677 PWs)   bands (ev):

    -7.4409  -7.3862  -7.3348  -7.3241  -7.0171  -6.9144  -6.8888  -6.8801
    -6.8579  -6.8519  -2.8727  -2.8694   1.1129   1.1662   3.8072   3.8760
     4.8493   4.8862  11.8306  11.9040  12.2773  12.3317  13.0402  13.1037
    16.4649  16.4894

          k =-0.2000-1.0000 0.2000 (  1672 PWs)   bands (ev):

    -7.4402  -7.3956  -7.3350  -7.3223  -7.0055  -6.9296  -6.8799  -6.8705
    -6.8645  -6.8470  -2.6002  -2.6001   0.7338   0.7785   3.7382   3.7853
     5.1688   5.1708   9.5755   9.5780  11.6853  11.7232  16.7807  16.8483
    16.9552  16.9570

          k =-0.4000-0.8000-0.0000 (  1677 PWs)   bands (ev):

    -7.4409  -7.3862  -7.3348  -7.3241  -7.0171  -6.9144  -6.8888  -6.8801
    -6.8579  -6.8519  -2.8727  -2.8694   1.1129   1.1662   3.8072   3.8760
     4.8493   4.8862  11.8306  11.9040  12.2773  12.3317  13.0402  13.1037
    16.4649  16.4894

          k =-0.4000-0.4000 0.0000 (  1666 PWs)   bands (ev):

    -7.4088  -7.3783  -7.3454  -7.3421  -6.9888  -6.9284  -6.8986  -6.8844
    -6.8610  -6.8574  -4.2184  -4.2107   2.8466   2.8852   4.8555   4.9106
     6.9877   6.9896  10.8789  10.9239  12.9266  12.9355  12.9908  13.0194
    13.6754  13.6997

          k =-0.6000-0.2000-0.2000 (  1685 PWs)   bands (ev):

    -7.4182  -7.3849  -7.3451  -7.3353  -6.9901  -6.9340  -6.8865  -6.8846
    -6.8592  -6.8568  -3.8010  -3.7954   2.0942   2.1190   5.1401   5.1810
     5.8148   5.8211  10.2696  10.2752  12.2163  12.2797  13.7100  13.7552
    14.5724  14.5752

          k =-0.8000 0.0000-0.4000 (  1677 PWs)   bands (ev):

    -7.4409  -7.3862  -7.3348  -7.3241  -7.0171  -6.9144  -6.8888  -6.8801
    -6.8579  -6.8519  -2.8727  -2.8694   1.1129   1.1662   3.8072   3.8760
     4.8493   4.8862  11.8306  11.9040  12.2773  12.3317  13.0402  13.1037
    16.4649  16.4894

          k = 0.0000-0.8000 0.4000 (  1677 PWs)   bands (ev):

    -7.4409  -7.3862  -7.3348  -7.3241  -7.0171  -6.9144  -6.8888  -6.8801
    -6.8579  -6.8519  -2.8727  -2.8694   1.1129   1.1662   3.8072   3.8760
     4.8493   4.8862  11.8306  11.9040  12.2773  12.3317  13.0402  13.1037
    16.4649  16.4894

          k =-0.2000-0.6000 0.2000 (  1685 PWs)   bands (ev):

    -7.4182  -7.3849  -7.3451  -7.3353  -6.9901  -6.9340  -6.8865  -6.8846
    -6.8592  -6.8568  -3.8010  -3.7954   2.0942   2.1190   5.1401   5.1810
     5.8148   5.8211  10.2696  10.2752  12.2163  12.2797  13.7100  13.7552
    14.5724  14.5752

          k =-0.4000-0.4000 0.4000 (  1673 PWs)   bands (ev):

    -7.3942  -7.3942  -7.3550  -7.3502  -6.9545  -6.9545  -6.9014  -6.9014
    -6.8537  -6.8484  -3.7815  -3.7815   1.2949   1.2949   6.5652   6.5652
     6.7788   6.7812   9.1852   9.1852  12.5065  12.5065  12.6027  12.6040
    15.7956  15.7956

          k =-0.6000-0.2000 0.2000 (  1685 PWs)   bands (ev):

    -7.4182  -7.3849  -7.3451  -7.3353  -6.9901  -6.9340  -6.8865  -6.8846
    -6.8592  -6.8568  -3.8010  -3.7954   2.0942   2.1190   5.1401   5.1810
     5.8148   5.8211  10.2696  10.2752  12.2163  12.2797  13.7100  13.7552
    14.5724  14.5752

          k =-0.8000 0.0000 0.0000 (  1692 PWs)   bands (ev):

    -7.4160  -7.4160  -7.3328  -7.3328  -6.9638  -6.9638  -6.8751  -6.8751
    -6.8543  -6.8543  -3.1332  -3.1332   1.3476   1.3476   5.0047   5.0047
     5.0905   5.0905   9.1366   9.1366   9.8979   9.8979  17.5261  17.5261
    17.6057  17.6057

          k = 0.0000-0.8000 0.8000 (  1672 PWs)   bands (ev):

    -7.4402  -7.3956  -7.3350  -7.3223  -7.0055  -6.9296  -6.8799  -6.8705
    -6.8645  -6.8470  -2.6002  -2.6001   0.7338   0.7785   3.7382   3.7853
     5.1688   5.1708   9.5755   9.5780  11.6853  11.7232  16.7807  16.8483
    16.9552  16.9570

          k =-0.2000-0.6000 0.6000 (  1669 PWs)   bands (ev):

    -7.4309  -7.3840  -7.3424  -7.3313  -7.0049  -6.9161  -6.9036  -6.8874
    -6.8534  -6.8504  -3.1668  -3.1615   0.9735   1.0085   4.3026   4.3462
     6.0856   6.0856  10.4091  10.4242  12.8815  12.9160  13.8993  13.8999
    16.0018  16.0352

          k =-0.2000-0.2000 0.6000 (  1685 PWs)   bands (ev):

    -7.4182  -7.3849  -7.3451  -7.3353  -6.9901  -6.9340  -6.8865  -6.8846
    -6.8592  -6.8568  -3.8010  -3.7954   2.0942   2.1190   5.1401   5.1810
     5.8148   5.8211  10.2696  10.2752  12.2163  12.2797  13.7100  13.7552
    14.5724  14.5752

          k =-0.4000 0.0000 0.4000 (  1666 PWs)   bands (ev):

    -7.4088  -7.3783  -7.3454  -7.3421  -6.9888  -6.9284  -6.8986  -6.8844
    -6.8610  -6.8574  -4.2184  -4.2107   2.8466   2.8852   4.8555   4.9106
     6.9877   6.9896  10.8789  10.9239  12.9266  12.9355  12.9908  13.0194
    13.6754  13.6997

          k =-0.6000 0.2000 0.2000 (  1685 PWs)   bands (ev):

    -7.4182  -7.3849  -7.3451  -7.3353  -6.9901  -6.9340  -6.8865  -6.8846
    -6.8592  -6.8568  -3.8010  -3.7954   2.0942   2.1190   5.1401   5.1810
     5.8148   5.8211  10.2696  10.2752  12.2163  12.2797  13.7100  13.7552
    14.5724  14.5752

          k = 0.2000-0.6000 1.0000 (  1677 PWs)   bands (ev):

    -7.4409  -7.3862  -7.3348  -7.3241  -7.0171  -6.9144  -6.8888  -6.8801
    -6.8579  -6.8519  -2.8727  -2.8694   1.1129   1.1662   3.8072   3.8760
     4.8493   4.8862  11.8306  11.9040  12.2773  12.3317  13.0402  13.1037
    16.4649  16.4894

          k =-0.0000-0.4000 0.8000 (  1677 PWs)   bands (ev):

    -7.4409  -7.3862  -7.3348  -7.3241  -7.0171  -6.9144  -6.8888  -6.8801
    -6.8579  -6.8519  -2.8727  -2.8694   1.1129   1.1662   3.8072   3.8760
     4.8493   4.8862  11.8306  11.9040  12.2773  12.3317  13.0402  13.1037
    16.4649  16.4894

          k = 0.0000 0.0000 0.8000 (  1692 PWs)   bands (ev):

    -7.4160  -7.4160  -7.3328  -7.3328  -6.9638  -6.9638  -6.8751  -6.8751
    -6.8543  -6.8543  -3.1332  -3.1332   1.3476   1.3476   5.0047   5.0047
     5.0905   5.0905   9.1366   9.1366   9.8979   9.8979  17.5261  17.5261
    17.6057  17.6057

          k =-0.2000 0.2000 0.6000 (  1685 PWs)   bands (ev):

    -7.4182  -7.3849  -7.3451  -7.3353  -6.9901  -6.9340  -6.8865  -6.8846
    -6.8592  -6.8568  -3.8010  -3.7954   2.0942   2.1190   5.1401   5.1810
     5.8148   5.8211  10.2696  10.2752  12.2163  12.2797  13.7100  13.7552
    14.5724  14.5752

          k =-0.4000 0.4000 0.4000 (  1673 PWs)   bands (ev):

    -7.3942  -7.3942  -7.3550  -7.3502  -6.9545  -6.9545  -6.9014  -6.9014
    -6.8537  -6.8484  -3.7815  -3.7815   1.2949   1.2949   6.5652   6.5652
     6.7788   6.7812   9.1852   9.1852  12.5065  12.5065  12.6027  12.6040
    15.7956  15.7956

          k = 0.4000-0.4000 1.2000 (  1669 PWs)   bands (ev):

    -7.4309  -7.3840  -7.3424  -7.3313  -7.0049  -6.9161  -6.9036  -6.8874
    -6.8534  -6.8504  -3.1668  -3.1615   0.9735   1.0085   4.3026   4.3462
     6.0856   6.0856  10.4091  10.4242  12.8815  12.9160  13.8993  13.8999
    16.0018  16.0352

          k = 0.2000-0.2000 1.0000 (  1672 PWs)   bands (ev):

    -7.4402  -7.3956  -7.3350  -7.3223  -7.0055  -6.9296  -6.8799  -6.8705
    -6.8645  -6.8470  -2.6002  -2.6001   0.7338   0.7785   3.7382   3.7853
     5.1688   5.1708   9.5755   9.5780  11.6853  11.7232  16.7807  16.8483
    16.9552  16.9570

          k =-0.8000-0.8000 0.0000 (  1672 PWs)   bands (ev):

    -7.4402  -7.3956  -7.3350  -7.3223  -7.0055  -6.9296  -6.8799  -6.8705
    -6.8645  -6.8470  -2.6002  -2.6001   0.7338   0.7785   3.7382   3.7853
     5.1688   5.1708   9.5755   9.5780  11.6853  11.7232  16.7807  16.8483
    16.9552  16.9570

          k =-1.0000-0.6000-0.2000 (  1677 PWs)   bands (ev):

    -7.4409  -7.3862  -7.3348  -7.3241  -7.0171  -6.9144  -6.8888  -6.8801
    -6.8579  -6.8519  -2.8727  -2.8694   1.1129   1.1662   3.8072   3.8760
     4.8493   4.8862  11.8306  11.9040  12.2773  12.3317  13.0402  13.1037
    16.4649  16.4894

          k =-1.2000-0.4000-0.4000 (  1669 PWs)   bands (ev):

    -7.4309  -7.3840  -7.3424  -7.3313  -7.0049  -6.9161  -6.9036  -6.8874
    -6.8534  -6.8504  -3.1668  -3.1615   0.9735   1.0085   4.3026   4.3462
     6.0856   6.0856  10.4091  10.4242  12.8815  12.9160  13.8993  13.8999
    16.0018  16.0352

          k =-0.4000-1.2000 0.4000 (  1669 PWs)   bands (ev):

    -7.4309  -7.3840  -7.3424  -7.3313  -7.0049  -6.9161  -6.9036  -6.8874
    -6.8534  -6.8504  -3.1668  -3.1615   0.9735   1.0085   4.3026   4.3462
     6.0856   6.0856  10.4091  10.4242  12.8815  12.9160  13.8993  13.8999
    16.0018  16.0352

          k =-0.6000-1.0000 0.2000 (  1677 PWs)   bands (ev):

    -7.4409  -7.3862  -7.3348  -7.3241  -7.0171  -6.9144  -6.8888  -6.8801
    -6.8579  -6.8519  -2.8727  -2.8694   1.1129   1.1662   3.8072   3.8760
     4.8493   4.8862  11.8306  11.9040  12.2773  12.3317  13.0402  13.1037
    16.4649  16.4894

          k =-0.6000-0.6000 0.2000 (  1669 PWs)   bands (ev):

    -7.4309  -7.3840  -7.3424  -7.3313  -7.0049  -6.9161  -6.9036  -6.8874
    -6.8534  -6.8504  -3.1668  -3.1615   0.9735   1.0085   4.3026   4.3462
     6.0856   6.0856  10.4091  10.4242  12.8815  12.9160  13.8993  13.8999
    16.0018  16.0352

          k =-0.8000-0.4000 0.0000 (  1677 PWs)   bands (ev):

    -7.4409  -7.3862  -7.3348  -7.3241  -7.0171  -6.9144  -6.8888  -6.8801
    -6.8579  -6.8519  -2.8727  -2.8694   1.1129   1.1662   3.8072   3.8760
     4.8493   4.8862  11.8306  11.9040  12.2773  12.3317  13.0402  13.1037
    16.4649  16.4894

          k =-1.0000-0.2000-0.2000 (  1672 PWs)   bands (ev):

    -7.4402  -7.3956  -7.3350  -7.3223  -7.0055  -6.9296  -6.8799  -6.8705
    -6.8645  -6.8470  -2.6002  -2.6001   0.7338   0.7785   3.7382   3.7853
     5.1688   5.1708   9.5755   9.5780  11.6853  11.7232  16.7807  16.8483
    16.9552  16.9570

          k =-0.2000-1.0000 0.6000 (  1677 PWs)   bands (ev):

    -7.4409  -7.3862  -7.3348  -7.3241  -7.0171  -6.9144  -6.8888  -6.8801
    -6.8579  -6.8519  -2.8727  -2.8694   1.1129   1.1662   3.8072   3.8760
     4.8493   4.8862  11.8306  11.9040  12.2773  12.3317  13.0402  13.1037
    16.4649  16.4894

          k =-0.4000-0.8000 0.4000 (  1669 PWs)   bands (ev):

    -7.4309  -7.3840  -7.3424  -7.3313  -7.0049  -6.9161  -6.9036  -6.8874
    -6.8534  -6.8504  -3.1668  -3.1615   0.9735   1.0085   4.3026   4.3462
     6.0856   6.0856  10.4091  10.4242  12.8815  12.9160  13.8993  13.8999
    16.0018  16.0352

     the Fermi energy is     8.2813 ev

!    total energy              =    -190.98731687 Ry
     estimated scf accuracy    <          9.2E-10 Ry
     smearing contrib. (-TS)   =      -0.00000000 Ry
     internal energy E=F+TS    =    -190.98731687 Ry

     The total energy is F=E-TS. E is the sum of the following terms:
     one-electron contribution =    -107.52837999 Ry
     hartree contribution      =      70.19595622 Ry
     xc contribution           =     -58.00730191 Ry
     ewald contribution        =     -95.64759119 Ry

     convergence has been achieved in  10 iterations

     Writing all to output data dir ./GaAs.save/

     init_run     :     15.78s CPU      4.34s WALL (       1 calls)
     electrons    :    474.04s CPU    110.98s WALL (       1 calls)

     Called by init_run:
     wfcinit      :     14.62s CPU      3.51s WALL (       1 calls)
     potinit      :      0.05s CPU      0.05s WALL (       1 calls)
     hinit0       :      0.61s CPU      0.61s WALL (       1 calls)

     Called by electrons:
     c_bands      :    376.07s CPU     88.77s WALL (      11 calls)
     sum_band     :     88.71s CPU     19.64s WALL (      11 calls)
     v_of_rho     :      1.65s CPU      0.52s WALL (      11 calls)
     newd         :      6.64s CPU      1.78s WALL (      11 calls)
     mix_rho      :      0.93s CPU      0.28s WALL (      11 calls)

     Called by c_bands:
     init_us_2    :      5.24s CPU      0.74s WALL (    1449 calls)
     init_us_2:cp :      5.22s CPU      0.74s WALL (    1449 calls)
     cegterg      :    345.90s CPU     84.30s WALL (     693 calls)

     Called by *egterg:
     cdiaghg      :      9.26s CPU      1.36s WALL (    2053 calls)
     h_psi        :    298.21s CPU     77.97s WALL (    2179 calls)
     s_psi        :      5.61s CPU      1.33s WALL (    2179 calls)
     g_psi        :      1.16s CPU      0.23s WALL (    1423 calls)

     Called by h_psi:
     h_psi:calbec :      6.78s CPU      1.90s WALL (    2179 calls)
     vloc_psi     :    285.95s CPU     74.57s WALL (    2179 calls)
     add_vuspsi   :      4.38s CPU      1.24s WALL (    2179 calls)

     General routines
     calbec       :     10.90s CPU      2.95s WALL (    2872 calls)
     fft          :      2.43s CPU      0.75s WALL (     265 calls)
     ffts         :      0.21s CPU      0.05s WALL (      88 calls)
     fftw         :    285.03s CPU     72.10s WALL (  210400 calls)
     interpolate  :      0.45s CPU      0.17s WALL (      44 calls)


     PWSCF        :   8m11.51s CPU   1m55.76s WALL


   This run was terminated on:  18:41:52  12May2024            

=------------------------------------------------------------------------------=
   JOB DONE.
=------------------------------------------------------------------------------=
