
     Program PWSCF v.7.2 starts on 12May2024 at 18:43:48 

     This program is part of the open-source Quantum ESPRESSO suite
     for quantum simulation of materials; please cite
         "P. Giannozzi et al., J. Phys.:Condens. Matter 21 395502 (2009);
         "P. Giannozzi et al., J. Phys.:Condens. Matter 29 465901 (2017);
         "P. Giannozzi et al., J. Chem. Phys. 152 154105 (2020);
          URL http://www.quantum-espresso.org", 
     in publications or presentations arising from this work. More details at
     http://www.quantum-espresso.org/quote

     Serial version
     0 MiB available memory on the printing compute node when the environment starts

     Waiting for input...
     Reading input from standard input

     Current dimensions of program PWSCF are:
     Max number of different atomic species (ntypx) = 10
     Max number of k-points (npk) =  40000
     Max angular momentum in pseudopotentials (lmaxx) =  4
     file Ga.rel-pbe-dn-rrkjus_psl.0.2.UPF: wavefunction(s)  4S 3D 3D renormalized


     G-vector sticks info
     --------------------
     sticks:   dense  smooth     PW     G-vecs:    dense   smooth      PW
     Sum        1531     769    241                39957    14211    2421

     Using Slab Decomposition



     bravais-lattice index     =            2
     lattice parameter (alat)  =      10.6014  a.u.
     unit-cell volume          =     297.8689 (a.u.)^3
     number of atoms/cell      =            2
     number of atomic types    =            2
     number of electrons       =        18.00
     number of Kohn-Sham states=           26
     kinetic-energy cutoff     =      50.0000  Ry
     charge density cutoff     =     400.0000  Ry
     scf convergence threshold =      1.0E-08
     mixing beta               =       0.3000
     number of iterations used =            8  plain     mixing
     Exchange-correlation= PBE
                           (   1   4   3   4   0   0   0)
     Non magnetic calculation with spin-orbit


     celldm(1)=  10.601363  celldm(2)=   0.000000  celldm(3)=   0.000000
     celldm(4)=   0.000000  celldm(5)=   0.000000  celldm(6)=   0.000000

     crystal axes: (cart. coord. in units of alat)
               a(1) = (  -0.500000   0.000000   0.500000 )  
               a(2) = (   0.000000   0.500000   0.500000 )  
               a(3) = (  -0.500000   0.500000   0.000000 )  

     reciprocal axes: (cart. coord. in units 2 pi/alat)
               b(1) = ( -1.000000 -1.000000  1.000000 )  
               b(2) = (  1.000000  1.000000  1.000000 )  
               b(3) = ( -1.000000  1.000000 -1.000000 )  


     PseudoPot. # 1 for As read from file:
     ../pseudopotential/As.rel-pbe-n-rrkjus_psl.0.2.UPF
     MD5 check sum: fd1d9cb43fef956eb1cdd0c60ce90062
     Pseudo is Ultrasoft + core correction, Zval =  5.0
     Generated using "atomic" code by A. Dal Corso  v.5.0.2 svn rev. 9415
     Using radial grid of 1209 points,  6 beta functions with: 
                l(1) =   0
                l(2) =   0
                l(3) =   1
                l(4) =   1
                l(5) =   1
                l(6) =   1
     Q(r) pseudized with 0 coefficients 


     PseudoPot. # 2 for Ga read from file:
     ../pseudopotential/Ga.rel-pbe-dn-rrkjus_psl.0.2.UPF
     MD5 check sum: b82f27152fdba9c8aaf7d704465ad383
     Pseudo is Ultrasoft + core correction, Zval = 13.0
     Generated using "atomic" code by A. Dal Corso  v.5.0.2 svn rev. 9415
     Using radial grid of 1205 points, 10 beta functions with: 
                l(1) =   0
                l(2) =   0
                l(3) =   1
                l(4) =   1
                l(5) =   1
                l(6) =   1
                l(7) =   2
                l(8) =   2
                l(9) =   2
               l(10) =   2
     Q(r) pseudized with 0 coefficients 


     atomic species   valence    mass     pseudopotential
        As             5.00    74.92160     As( 1.00)
        Ga            13.00    69.72000     Ga( 1.00)

     No symmetry found



   Cartesian axes

     site n.     atom                  positions (alat units)
         1           Ga  tau(   1) = (   0.0000000   0.0000000   0.0000000  )
         2           As  tau(   2) = (   0.2500000   0.2500000   0.2500000  )

     number of k points=    63  Gaussian smearing, width (Ry)=  0.0020
                       cart. coord. in units 2pi/alat
        k(    1) = (   0.0000000   0.0000000   0.0000000), wk =   0.0080000
        k(    2) = (  -0.2000000   0.2000000  -0.2000000), wk =   0.0160000
        k(    3) = (  -0.4000000   0.4000000  -0.4000000), wk =   0.0160000
        k(    4) = (   0.2000000   0.2000000   0.2000000), wk =   0.0160000
        k(    5) = (   0.0000000   0.4000000   0.0000000), wk =   0.0160000
        k(    6) = (  -0.2000000   0.6000000  -0.2000000), wk =   0.0160000
        k(    7) = (   0.6000000  -0.2000000   0.6000000), wk =   0.0160000
        k(    8) = (   0.4000000   0.0000000   0.4000000), wk =   0.0160000
        k(    9) = (   0.4000000   0.4000000   0.4000000), wk =   0.0160000
        k(   10) = (   0.2000000   0.6000000   0.2000000), wk =   0.0160000
        k(   11) = (   0.0000000   0.8000000   0.0000000), wk =   0.0160000
        k(   12) = (   0.8000000   0.0000000   0.8000000), wk =   0.0160000
        k(   13) = (   0.6000000   0.2000000   0.6000000), wk =   0.0160000
        k(   14) = (  -0.2000000  -0.2000000   0.2000000), wk =   0.0160000
        k(   15) = (  -0.4000000   0.0000000   0.0000000), wk =   0.0160000
        k(   16) = (  -0.6000000   0.2000000  -0.2000000), wk =   0.0160000
        k(   17) = (   0.2000000  -0.6000000   0.6000000), wk =   0.0160000
        k(   18) = (  -0.0000000  -0.4000000   0.4000000), wk =   0.0160000
        k(   19) = (   0.0000000   0.0000000   0.4000000), wk =   0.0160000
        k(   20) = (  -0.2000000   0.2000000   0.2000000), wk =   0.0160000
        k(   21) = (  -0.4000000   0.4000000   0.0000000), wk =   0.0160000
        k(   22) = (   0.4000000  -0.4000000   0.8000000), wk =   0.0160000
        k(   23) = (   0.2000000  -0.2000000   0.6000000), wk =   0.0160000
        k(   24) = (   0.2000000   0.2000000   0.6000000), wk =   0.0160000
        k(   25) = (   0.0000000   0.4000000   0.4000000), wk =   0.0160000
        k(   26) = (  -0.2000000   0.6000000   0.2000000), wk =   0.0160000
        k(   27) = (   0.6000000  -0.2000000   1.0000000), wk =   0.0160000
        k(   28) = (   0.4000000   0.0000000   0.8000000), wk =   0.0160000
        k(   29) = (  -0.6000000  -0.6000000  -0.2000000), wk =   0.0160000
        k(   30) = (  -0.8000000  -0.4000000  -0.4000000), wk =   0.0160000
        k(   31) = (  -1.0000000  -0.2000000  -0.6000000), wk =   0.0160000
        k(   32) = (  -0.2000000  -1.0000000   0.2000000), wk =   0.0160000
        k(   33) = (  -0.4000000  -0.8000000  -0.0000000), wk =   0.0160000
        k(   34) = (  -0.4000000  -0.4000000   0.0000000), wk =   0.0160000
        k(   35) = (  -0.6000000  -0.2000000  -0.2000000), wk =   0.0160000
        k(   36) = (  -0.8000000   0.0000000  -0.4000000), wk =   0.0160000
        k(   37) = (   0.0000000  -0.8000000   0.4000000), wk =   0.0160000
        k(   38) = (  -0.2000000  -0.6000000   0.2000000), wk =   0.0160000
        k(   39) = (  -0.4000000  -0.4000000   0.4000000), wk =   0.0160000
        k(   40) = (  -0.6000000  -0.2000000   0.2000000), wk =   0.0160000
        k(   41) = (  -0.8000000   0.0000000   0.0000000), wk =   0.0160000
        k(   42) = (   0.0000000  -0.8000000   0.8000000), wk =   0.0160000
        k(   43) = (  -0.2000000  -0.6000000   0.6000000), wk =   0.0160000
        k(   44) = (  -0.2000000  -0.2000000   0.6000000), wk =   0.0160000
        k(   45) = (  -0.4000000   0.0000000   0.4000000), wk =   0.0160000
        k(   46) = (  -0.6000000   0.2000000   0.2000000), wk =   0.0160000
        k(   47) = (   0.2000000  -0.6000000   1.0000000), wk =   0.0160000
        k(   48) = (  -0.0000000  -0.4000000   0.8000000), wk =   0.0160000
        k(   49) = (   0.0000000   0.0000000   0.8000000), wk =   0.0160000
        k(   50) = (  -0.2000000   0.2000000   0.6000000), wk =   0.0160000
        k(   51) = (  -0.4000000   0.4000000   0.4000000), wk =   0.0160000
        k(   52) = (   0.4000000  -0.4000000   1.2000000), wk =   0.0160000
        k(   53) = (   0.2000000  -0.2000000   1.0000000), wk =   0.0160000
        k(   54) = (  -0.8000000  -0.8000000   0.0000000), wk =   0.0160000
        k(   55) = (  -1.0000000  -0.6000000  -0.2000000), wk =   0.0160000
        k(   56) = (  -1.2000000  -0.4000000  -0.4000000), wk =   0.0160000
        k(   57) = (  -0.4000000  -1.2000000   0.4000000), wk =   0.0160000
        k(   58) = (  -0.6000000  -1.0000000   0.2000000), wk =   0.0160000
        k(   59) = (  -0.6000000  -0.6000000   0.2000000), wk =   0.0160000
        k(   60) = (  -0.8000000  -0.4000000   0.0000000), wk =   0.0160000
        k(   61) = (  -1.0000000  -0.2000000  -0.2000000), wk =   0.0160000
        k(   62) = (  -0.2000000  -1.0000000   0.6000000), wk =   0.0160000
        k(   63) = (  -0.4000000  -0.8000000   0.4000000), wk =   0.0160000

     Dense  grid:    39957 G-vectors     FFT dimensions: (  48,  48,  48)

     Smooth grid:    14211 G-vectors     FFT dimensions: (  36,  36,  36)

     Estimated max dynamical RAM per process >     546.99 MB

     Initial potential from superposition of free atoms

     starting charge      17.9971, renormalised to      18.0000
     Starting wfcs are   26 randomized atomic wfcs

     total cpu time spent up to now is        4.7 secs

     Self-consistent Calculation

     iteration #  1     ecut=    50.00 Ry     beta= 0.30
     Davidson diagonalization with overlap
     ethr =  1.00E-02,  avg # of iterations =  4.0

     Threshold (ethr) on eigenvalues was too large:
     Diagonalizing with lowered threshold

     Davidson diagonalization with overlap
     ethr =  2.77E-04,  avg # of iterations =  2.1

     total cpu time spent up to now is       26.0 secs

     total energy              =    -190.99636011 Ry
     estimated scf accuracy    <       0.04973519 Ry

     iteration #  2     ecut=    50.00 Ry     beta= 0.30
     Davidson diagonalization with overlap
     ethr =  2.76E-04,  avg # of iterations =  1.4

     total cpu time spent up to now is       38.2 secs

     total energy              =    -190.99630505 Ry
     estimated scf accuracy    <       0.01435252 Ry

     iteration #  3     ecut=    50.00 Ry     beta= 0.30
     Davidson diagonalization with overlap
     ethr =  7.97E-05,  avg # of iterations =  2.0

     total cpu time spent up to now is       49.7 secs

     total energy              =    -190.99711673 Ry
     estimated scf accuracy    <       0.00233143 Ry

     iteration #  4     ecut=    50.00 Ry     beta= 0.30
     Davidson diagonalization with overlap
     ethr =  1.30E-05,  avg # of iterations =  2.4

     total cpu time spent up to now is       61.1 secs

     total energy              =    -190.99723044 Ry
     estimated scf accuracy    <       0.00006109 Ry

     iteration #  5     ecut=    50.00 Ry     beta= 0.30
     Davidson diagonalization with overlap
     ethr =  3.39E-07,  avg # of iterations =  2.3

     total cpu time spent up to now is       73.3 secs

     total energy              =    -190.99725466 Ry
     estimated scf accuracy    <       0.00003669 Ry

     iteration #  6     ecut=    50.00 Ry     beta= 0.30
     Davidson diagonalization with overlap
     ethr =  2.04E-07,  avg # of iterations =  1.0

     total cpu time spent up to now is       82.2 secs

     total energy              =    -190.99725322 Ry
     estimated scf accuracy    <       0.00000594 Ry

     iteration #  7     ecut=    50.00 Ry     beta= 0.30
     Davidson diagonalization with overlap
     ethr =  3.30E-08,  avg # of iterations =  2.0

     total cpu time spent up to now is       93.4 secs

     total energy              =    -190.99725590 Ry
     estimated scf accuracy    <       0.00000168 Ry

     iteration #  8     ecut=    50.00 Ry     beta= 0.30
     Davidson diagonalization with overlap
     ethr =  9.32E-09,  avg # of iterations =  1.0

     total cpu time spent up to now is      102.2 secs

     total energy              =    -190.99725540 Ry
     estimated scf accuracy    <       0.00000071 Ry

     iteration #  9     ecut=    50.00 Ry     beta= 0.30
     Davidson diagonalization with overlap
     ethr =  3.93E-09,  avg # of iterations =  2.0

     total cpu time spent up to now is      114.0 secs

     total energy              =    -190.99725564 Ry
     estimated scf accuracy    <       0.00000009 Ry

     iteration # 10     ecut=    50.00 Ry     beta= 0.30
     Davidson diagonalization with overlap
     ethr =  4.80E-10,  avg # of iterations =  2.0

     total cpu time spent up to now is      124.4 secs

     End of self-consistent calculation

          k = 0.0000 0.0000 0.0000 (  1807 PWs)   bands (ev):

    -8.0197  -8.0197  -8.0197  -8.0197  -7.5968  -7.5968  -7.5395  -7.5395
    -7.5395  -7.5395  -5.8177  -5.8177   6.8574   6.8574   7.1955   7.1955
     7.1955   7.1955   7.7870   7.7870  10.6701  10.6701  10.8654  10.8654
    10.8654  10.8654

          k =-0.2000 0.2000-0.2000 (  1781 PWs)   bands (ev):

    -8.0284  -8.0284  -8.0206  -8.0144  -7.6024  -7.6024  -7.5501  -7.5501
    -7.5361  -7.5291  -5.3466  -5.3466   3.7500   3.7500   6.4521   6.4521
     6.6643   6.6682   8.7498   8.7498  11.4547  11.4547  11.5894  11.5921
    12.3501  12.3501

          k =-0.4000 0.4000-0.4000 (  1784 PWs)   bands (ev):

    -8.0436  -8.0436  -8.0165  -8.0127  -7.6065  -7.6065  -7.5620  -7.5620
    -7.5229  -7.5186  -4.2588  -4.2588   0.8157   0.8157   5.8757   5.8757
     6.0836   6.0856   8.2209   8.2209  11.7011  11.7011  11.7993  11.8005
    14.9082  14.9082

          k = 0.2000 0.2000 0.2000 (  1781 PWs)   bands (ev):

    -8.0284  -8.0284  -8.0206  -8.0144  -7.6024  -7.6024  -7.5501  -7.5501
    -7.5361  -7.5291  -5.3466  -5.3466   3.7500   3.7500   6.4521   6.4521
     6.6643   6.6682   8.7498   8.7498  11.4547  11.4547  11.5894  11.5921
    12.3501  12.3501

          k = 0.0000 0.4000 0.0000 (  1792 PWs)   bands (ev):

    -8.0367  -8.0367  -8.0108  -8.0108  -7.6064  -7.6064  -7.5402  -7.5402
    -7.5386  -7.5386  -5.1895  -5.1895   3.8089   3.8089   5.6719   5.6719
     5.7956   5.7956   9.3778   9.3778  10.4892  10.4892  12.9318  12.9318
    12.9523  12.9523

          k =-0.2000 0.6000-0.2000 (  1773 PWs)   bands (ev):

    -8.0638  -8.0376  -8.0084  -8.0006  -7.6353  -7.5904  -7.5502  -7.5475
    -7.5270  -7.5256  -4.2657  -4.2616   1.5024   1.5274   4.5405   4.5857
     5.1929   5.1996   9.4617   9.4736  11.2433  11.3017  12.8420  12.8852
    13.6240  13.6264

          k = 0.6000-0.2000 0.6000 (  1781 PWs)   bands (ev):

    -8.0740  -8.0370  -8.0063  -7.9970  -7.6479  -7.5757  -7.5643  -7.5499
    -7.5225  -7.5202  -3.7085  -3.7049   0.4967   0.5316   3.7551   3.8030
     5.4404   5.4411   9.5423   9.5629  11.9591  11.9931  13.0109  13.0115
    14.9281  14.9538

          k = 0.4000 0.0000 0.4000 (  1769 PWs)   bands (ev):

    -8.0561  -8.0334  -8.0088  -8.0057  -7.6325  -7.5848  -7.5601  -7.5478
    -7.5289  -7.5259  -4.6451  -4.6396   2.1991   2.2368   4.3016   4.3598
     6.2726   6.2735   9.8715   9.9230  12.0366  12.0639  12.0832  12.0975
    12.7587  12.7836

          k = 0.4000 0.4000 0.4000 (  1784 PWs)   bands (ev):

    -8.0436  -8.0436  -8.0165  -8.0127  -7.6065  -7.6065  -7.5620  -7.5620
    -7.5229  -7.5186  -4.2588  -4.2588   0.8157   0.8157   5.8757   5.8757
     6.0836   6.0856   8.2209   8.2209  11.7011  11.7011  11.7993  11.8005
    14.9082  14.9082

          k = 0.2000 0.6000 0.2000 (  1773 PWs)   bands (ev):

    -8.0638  -8.0376  -8.0084  -8.0006  -7.6353  -7.5904  -7.5502  -7.5475
    -7.5270  -7.5256  -4.2657  -4.2616   1.5024   1.5274   4.5405   4.5857
     5.1929   5.1996   9.4617   9.4736  11.2433  11.3017  12.8420  12.8852
    13.6240  13.6264

          k = 0.0000 0.8000 0.0000 (  1756 PWs)   bands (ev):

    -8.0618  -8.0618  -7.9983  -7.9983  -7.6169  -7.6169  -7.5392  -7.5392
    -7.5238  -7.5238  -3.6615  -3.6615   0.7834   0.7834   4.4358   4.4358
     4.5225   4.5225   8.4540   8.4540   9.1616   9.1616  16.3505  16.3505
    16.4239  16.4239

          k = 0.8000 0.0000 0.8000 (  1764 PWs)   bands (ev):

    -8.0819  -8.0456  -8.0002  -7.9901  -7.6504  -7.5883  -7.5432  -7.5372
    -7.5310  -7.5176  -3.2050  -3.2046   0.2396   0.2816   3.2732   3.3225
     4.5909   4.5935   8.8625   8.8629  10.8356  10.8778  15.6176  15.6794
    15.8424  15.8464

          k = 0.6000 0.2000 0.6000 (  1781 PWs)   bands (ev):

    -8.0740  -8.0370  -8.0063  -7.9970  -7.6479  -7.5757  -7.5643  -7.5499
    -7.5225  -7.5202  -3.7085  -3.7049   0.4967   0.5316   3.7551   3.8030
     5.4404   5.4411   9.5423   9.5629  11.9591  11.9931  13.0109  13.0115
    14.9281  14.9538

          k =-0.2000-0.2000 0.2000 (  1781 PWs)   bands (ev):

    -8.0284  -8.0284  -8.0206  -8.0144  -7.6024  -7.6024  -7.5501  -7.5501
    -7.5361  -7.5291  -5.3466  -5.3466   3.7500   3.7500   6.4521   6.4521
     6.6643   6.6682   8.7498   8.7498  11.4547  11.4547  11.5894  11.5921
    12.3501  12.3501

          k =-0.4000 0.0000 0.0000 (  1792 PWs)   bands (ev):

    -8.0367  -8.0367  -8.0108  -8.0108  -7.6064  -7.6064  -7.5402  -7.5402
    -7.5386  -7.5386  -5.1895  -5.1895   3.8089   3.8089   5.6719   5.6719
     5.7956   5.7956   9.3778   9.3778  10.4892  10.4892  12.9318  12.9318
    12.9523  12.9523

          k =-0.6000 0.2000-0.2000 (  1773 PWs)   bands (ev):

    -8.0638  -8.0376  -8.0084  -8.0006  -7.6353  -7.5904  -7.5502  -7.5475
    -7.5270  -7.5256  -4.2657  -4.2616   1.5024   1.5274   4.5405   4.5857
     5.1929   5.1996   9.4617   9.4736  11.2433  11.3017  12.8420  12.8852
    13.6240  13.6264

          k = 0.2000-0.6000 0.6000 (  1781 PWs)   bands (ev):

    -8.0740  -8.0370  -8.0063  -7.9970  -7.6479  -7.5757  -7.5643  -7.5499
    -7.5225  -7.5202  -3.7085  -3.7049   0.4967   0.5316   3.7551   3.8030
     5.4404   5.4411   9.5423   9.5629  11.9591  11.9931  13.0109  13.0115
    14.9281  14.9538

          k =-0.0000-0.4000 0.4000 (  1769 PWs)   bands (ev):

    -8.0561  -8.0334  -8.0088  -8.0057  -7.6325  -7.5848  -7.5601  -7.5478
    -7.5289  -7.5259  -4.6451  -4.6396   2.1991   2.2368   4.3016   4.3598
     6.2726   6.2735   9.8715   9.9230  12.0366  12.0639  12.0832  12.0975
    12.7587  12.7836

          k = 0.0000 0.0000 0.4000 (  1792 PWs)   bands (ev):

    -8.0367  -8.0367  -8.0108  -8.0108  -7.6064  -7.6064  -7.5402  -7.5402
    -7.5386  -7.5386  -5.1895  -5.1895   3.8089   3.8089   5.6719   5.6719
     5.7956   5.7956   9.3778   9.3778  10.4892  10.4892  12.9318  12.9318
    12.9523  12.9523

          k =-0.2000 0.2000 0.2000 (  1781 PWs)   bands (ev):

    -8.0284  -8.0284  -8.0206  -8.0144  -7.6024  -7.6024  -7.5501  -7.5501
    -7.5361  -7.5291  -5.3466  -5.3466   3.7500   3.7500   6.4521   6.4521
     6.6643   6.6682   8.7498   8.7498  11.4547  11.4547  11.5894  11.5921
    12.3501  12.3501

          k =-0.4000 0.4000 0.0000 (  1769 PWs)   bands (ev):

    -8.0561  -8.0334  -8.0088  -8.0057  -7.6325  -7.5848  -7.5601  -7.5478
    -7.5289  -7.5259  -4.6451  -4.6396   2.1991   2.2368   4.3016   4.3598
     6.2726   6.2735   9.8715   9.9230  12.0366  12.0639  12.0832  12.0975
    12.7587  12.7836

          k = 0.4000-0.4000 0.8000 (  1781 PWs)   bands (ev):

    -8.0740  -8.0370  -8.0063  -7.9970  -7.6479  -7.5757  -7.5643  -7.5499
    -7.5225  -7.5202  -3.7085  -3.7049   0.4967   0.5316   3.7551   3.8030
     5.4404   5.4411   9.5423   9.5629  11.9591  11.9931  13.0109  13.0115
    14.9281  14.9538

          k = 0.2000-0.2000 0.6000 (  1773 PWs)   bands (ev):

    -8.0638  -8.0376  -8.0084  -8.0006  -7.6353  -7.5904  -7.5502  -7.5475
    -7.5270  -7.5256  -4.2657  -4.2616   1.5024   1.5274   4.5405   4.5857
     5.1929   5.1996   9.4617   9.4736  11.2433  11.3017  12.8420  12.8852
    13.6240  13.6264

          k = 0.2000 0.2000 0.6000 (  1773 PWs)   bands (ev):

    -8.0638  -8.0376  -8.0084  -8.0006  -7.6353  -7.5904  -7.5502  -7.5475
    -7.5270  -7.5256  -4.2657  -4.2616   1.5024   1.5274   4.5405   4.5857
     5.1929   5.1996   9.4617   9.4736  11.2433  11.3017  12.8420  12.8852
    13.6240  13.6264

          k = 0.0000 0.4000 0.4000 (  1769 PWs)   bands (ev):

    -8.0561  -8.0334  -8.0088  -8.0057  -7.6325  -7.5848  -7.5601  -7.5478
    -7.5289  -7.5259  -4.6451  -4.6396   2.1991   2.2368   4.3016   4.3598
     6.2726   6.2735   9.8715   9.9230  12.0366  12.0639  12.0832  12.0975
    12.7587  12.7836

          k =-0.2000 0.6000 0.2000 (  1773 PWs)   bands (ev):

    -8.0638  -8.0376  -8.0084  -8.0006  -7.6353  -7.5904  -7.5502  -7.5475
    -7.5270  -7.5256  -4.2657  -4.2616   1.5024   1.5274   4.5405   4.5857
     5.1929   5.1996   9.4617   9.4736  11.2433  11.3017  12.8420  12.8852
    13.6240  13.6264

          k = 0.6000-0.2000 1.0000 (  1787 PWs)   bands (ev):

    -8.0826  -8.0387  -8.0002  -7.9915  -7.6584  -7.5748  -7.5523  -7.5436
    -7.5261  -7.5214  -3.4408  -3.4388   0.5773   0.6280   3.3296   3.4003
     4.3063   4.3447  10.9497  11.0497  11.3347  11.3644  12.2056  12.2691
    15.3805  15.4040

          k = 0.4000 0.0000 0.8000 (  1787 PWs)   bands (ev):

    -8.0826  -8.0387  -8.0002  -7.9915  -7.6584  -7.5748  -7.5523  -7.5436
    -7.5261  -7.5214  -3.4408  -3.4388   0.5773   0.6280   3.3296   3.4003
     4.3063   4.3447  10.9497  11.0497  11.3347  11.3644  12.2056  12.2691
    15.3805  15.4040

          k =-0.6000-0.6000-0.2000 (  1781 PWs)   bands (ev):

    -8.0740  -8.0370  -8.0063  -7.9970  -7.6479  -7.5757  -7.5643  -7.5499
    -7.5225  -7.5202  -3.7085  -3.7049   0.4967   0.5316   3.7551   3.8030
     5.4404   5.4411   9.5423   9.5629  11.9591  11.9931  13.0109  13.0115
    14.9281  14.9538

          k =-0.8000-0.4000-0.4000 (  1781 PWs)   bands (ev):

    -8.0740  -8.0370  -8.0063  -7.9970  -7.6479  -7.5757  -7.5643  -7.5499
    -7.5225  -7.5202  -3.7085  -3.7049   0.4967   0.5316   3.7551   3.8030
     5.4404   5.4411   9.5423   9.5629  11.9591  11.9931  13.0109  13.0115
    14.9281  14.9538

          k =-1.0000-0.2000-0.6000 (  1787 PWs)   bands (ev):

    -8.0826  -8.0387  -8.0002  -7.9915  -7.6584  -7.5748  -7.5523  -7.5436
    -7.5261  -7.5214  -3.4408  -3.4388   0.5773   0.6280   3.3296   3.4003
     4.3063   4.3447  10.9497  11.0497  11.3347  11.3644  12.2056  12.2691
    15.3805  15.4040

          k =-0.2000-1.0000 0.2000 (  1764 PWs)   bands (ev):

    -8.0819  -8.0456  -8.0002  -7.9901  -7.6504  -7.5883  -7.5432  -7.5372
    -7.5310  -7.5176  -3.2050  -3.2046   0.2396   0.2816   3.2732   3.3225
     4.5909   4.5935   8.8625   8.8629  10.8356  10.8778  15.6176  15.6794
    15.8424  15.8464

          k =-0.4000-0.8000-0.0000 (  1787 PWs)   bands (ev):

    -8.0826  -8.0387  -8.0002  -7.9915  -7.6584  -7.5748  -7.5523  -7.5436
    -7.5261  -7.5214  -3.4408  -3.4388   0.5773   0.6280   3.3296   3.4003
     4.3063   4.3447  10.9497  11.0497  11.3347  11.3644  12.2056  12.2691
    15.3805  15.4040

          k =-0.4000-0.4000 0.0000 (  1769 PWs)   bands (ev):

    -8.0561  -8.0334  -8.0088  -8.0057  -7.6325  -7.5848  -7.5601  -7.5478
    -7.5289  -7.5259  -4.6451  -4.6396   2.1991   2.2368   4.3016   4.3598
     6.2726   6.2735   9.8715   9.9230  12.0366  12.0639  12.0832  12.0975
    12.7587  12.7836

          k =-0.6000-0.2000-0.2000 (  1773 PWs)   bands (ev):

    -8.0638  -8.0376  -8.0084  -8.0006  -7.6353  -7.5904  -7.5502  -7.5475
    -7.5270  -7.5256  -4.2657  -4.2616   1.5024   1.5274   4.5405   4.5857
     5.1929   5.1996   9.4617   9.4736  11.2433  11.3017  12.8420  12.8852
    13.6240  13.6264

          k =-0.8000 0.0000-0.4000 (  1787 PWs)   bands (ev):

    -8.0826  -8.0387  -8.0002  -7.9915  -7.6584  -7.5748  -7.5523  -7.5436
    -7.5261  -7.5214  -3.4408  -3.4388   0.5773   0.6280   3.3296   3.4003
     4.3063   4.3447  10.9497  11.0497  11.3347  11.3644  12.2056  12.2691
    15.3805  15.4040

          k = 0.0000-0.8000 0.4000 (  1787 PWs)   bands (ev):

    -8.0826  -8.0387  -8.0002  -7.9915  -7.6584  -7.5748  -7.5523  -7.5436
    -7.5261  -7.5214  -3.4408  -3.4388   0.5773   0.6280   3.3296   3.4003
     4.3063   4.3447  10.9497  11.0497  11.3347  11.3644  12.2056  12.2691
    15.3805  15.4040

          k =-0.2000-0.6000 0.2000 (  1773 PWs)   bands (ev):

    -8.0638  -8.0376  -8.0084  -8.0006  -7.6353  -7.5904  -7.5502  -7.5475
    -7.5270  -7.5256  -4.2657  -4.2616   1.5024   1.5274   4.5405   4.5857
     5.1929   5.1996   9.4617   9.4736  11.2433  11.3017  12.8420  12.8852
    13.6240  13.6264

          k =-0.4000-0.4000 0.4000 (  1784 PWs)   bands (ev):

    -8.0436  -8.0436  -8.0165  -8.0127  -7.6065  -7.6065  -7.5620  -7.5620
    -7.5229  -7.5186  -4.2588  -4.2588   0.8157   0.8157   5.8757   5.8757
     6.0836   6.0856   8.2209   8.2209  11.7011  11.7011  11.7993  11.8005
    14.9082  14.9082

          k =-0.6000-0.2000 0.2000 (  1773 PWs)   bands (ev):

    -8.0638  -8.0376  -8.0084  -8.0006  -7.6353  -7.5904  -7.5502  -7.5475
    -7.5270  -7.5256  -4.2657  -4.2616   1.5024   1.5274   4.5405   4.5857
     5.1929   5.1996   9.4617   9.4736  11.2433  11.3017  12.8420  12.8852
    13.6240  13.6264

          k =-0.8000 0.0000 0.0000 (  1756 PWs)   bands (ev):

    -8.0618  -8.0618  -7.9983  -7.9983  -7.6169  -7.6169  -7.5392  -7.5392
    -7.5238  -7.5238  -3.6615  -3.6615   0.7834   0.7834   4.4358   4.4358
     4.5225   4.5225   8.4540   8.4540   9.1616   9.1616  16.3505  16.3505
    16.4239  16.4239

          k = 0.0000-0.8000 0.8000 (  1764 PWs)   bands (ev):

    -8.0819  -8.0456  -8.0002  -7.9901  -7.6504  -7.5883  -7.5432  -7.5372
    -7.5310  -7.5176  -3.2050  -3.2046   0.2396   0.2816   3.2732   3.3225
     4.5909   4.5935   8.8625   8.8629  10.8356  10.8778  15.6176  15.6794
    15.8424  15.8464

          k =-0.2000-0.6000 0.6000 (  1781 PWs)   bands (ev):

    -8.0740  -8.0370  -8.0063  -7.9970  -7.6479  -7.5757  -7.5643  -7.5499
    -7.5225  -7.5202  -3.7085  -3.7049   0.4967   0.5316   3.7551   3.8030
     5.4404   5.4411   9.5423   9.5629  11.9591  11.9931  13.0109  13.0115
    14.9281  14.9538

          k =-0.2000-0.2000 0.6000 (  1773 PWs)   bands (ev):

    -8.0638  -8.0376  -8.0084  -8.0006  -7.6353  -7.5904  -7.5502  -7.5475
    -7.5270  -7.5256  -4.2657  -4.2616   1.5024   1.5274   4.5405   4.5857
     5.1929   5.1996   9.4617   9.4736  11.2433  11.3017  12.8420  12.8852
    13.6240  13.6264

          k =-0.4000 0.0000 0.4000 (  1769 PWs)   bands (ev):

    -8.0561  -8.0334  -8.0088  -8.0057  -7.6325  -7.5848  -7.5601  -7.5478
    -7.5289  -7.5259  -4.6451  -4.6396   2.1991   2.2368   4.3016   4.3598
     6.2726   6.2735   9.8715   9.9230  12.0366  12.0639  12.0832  12.0975
    12.7587  12.7836

          k =-0.6000 0.2000 0.2000 (  1773 PWs)   bands (ev):

    -8.0638  -8.0376  -8.0084  -8.0006  -7.6353  -7.5904  -7.5502  -7.5475
    -7.5270  -7.5256  -4.2657  -4.2616   1.5024   1.5274   4.5405   4.5857
     5.1929   5.1996   9.4617   9.4736  11.2433  11.3017  12.8420  12.8852
    13.6240  13.6264

          k = 0.2000-0.6000 1.0000 (  1787 PWs)   bands (ev):

    -8.0826  -8.0387  -8.0002  -7.9915  -7.6584  -7.5748  -7.5523  -7.5436
    -7.5261  -7.5214  -3.4408  -3.4388   0.5773   0.6280   3.3296   3.4003
     4.3063   4.3447  10.9497  11.0497  11.3347  11.3644  12.2056  12.2691
    15.3805  15.4040

          k =-0.0000-0.4000 0.8000 (  1787 PWs)   bands (ev):

    -8.0826  -8.0387  -8.0002  -7.9915  -7.6584  -7.5748  -7.5523  -7.5436
    -7.5261  -7.5214  -3.4408  -3.4388   0.5773   0.6280   3.3296   3.4003
     4.3063   4.3447  10.9497  11.0497  11.3347  11.3644  12.2056  12.2691
    15.3805  15.4040

          k = 0.0000 0.0000 0.8000 (  1756 PWs)   bands (ev):

    -8.0618  -8.0618  -7.9983  -7.9983  -7.6169  -7.6169  -7.5392  -7.5392
    -7.5238  -7.5238  -3.6615  -3.6615   0.7834   0.7834   4.4358   4.4358
     4.5225   4.5225   8.4540   8.4540   9.1616   9.1616  16.3505  16.3505
    16.4239  16.4239

          k =-0.2000 0.2000 0.6000 (  1773 PWs)   bands (ev):

    -8.0638  -8.0376  -8.0084  -8.0006  -7.6353  -7.5904  -7.5502  -7.5475
    -7.5270  -7.5256  -4.2657  -4.2616   1.5024   1.5274   4.5405   4.5857
     5.1929   5.1996   9.4617   9.4736  11.2433  11.3017  12.8420  12.8852
    13.6240  13.6264

          k =-0.4000 0.4000 0.4000 (  1784 PWs)   bands (ev):

    -8.0436  -8.0436  -8.0165  -8.0127  -7.6065  -7.6065  -7.5620  -7.5620
    -7.5229  -7.5186  -4.2588  -4.2588   0.8157   0.8157   5.8757   5.8757
     6.0836   6.0856   8.2209   8.2209  11.7011  11.7011  11.7993  11.8005
    14.9082  14.9082

          k = 0.4000-0.4000 1.2000 (  1781 PWs)   bands (ev):

    -8.0740  -8.0370  -8.0063  -7.9970  -7.6479  -7.5757  -7.5643  -7.5499
    -7.5225  -7.5202  -3.7085  -3.7049   0.4967   0.5316   3.7551   3.8030
     5.4404   5.4411   9.5423   9.5629  11.9591  11.9931  13.0109  13.0115
    14.9281  14.9538

          k = 0.2000-0.2000 1.0000 (  1764 PWs)   bands (ev):

    -8.0819  -8.0456  -8.0002  -7.9901  -7.6504  -7.5883  -7.5432  -7.5372
    -7.5310  -7.5176  -3.2050  -3.2046   0.2396   0.2816   3.2732   3.3225
     4.5909   4.5935   8.8625   8.8629  10.8356  10.8778  15.6176  15.6794
    15.8424  15.8464

          k =-0.8000-0.8000 0.0000 (  1764 PWs)   bands (ev):

    -8.0819  -8.0456  -8.0002  -7.9901  -7.6504  -7.5883  -7.5432  -7.5372
    -7.5310  -7.5176  -3.2050  -3.2046   0.2396   0.2816   3.2732   3.3225
     4.5909   4.5935   8.8625   8.8629  10.8356  10.8778  15.6176  15.6794
    15.8424  15.8464

          k =-1.0000-0.6000-0.2000 (  1787 PWs)   bands (ev):

    -8.0826  -8.0387  -8.0002  -7.9915  -7.6584  -7.5748  -7.5523  -7.5436
    -7.5261  -7.5214  -3.4408  -3.4388   0.5773   0.6280   3.3296   3.4003
     4.3063   4.3447  10.9497  11.0497  11.3347  11.3644  12.2056  12.2691
    15.3805  15.4040

          k =-1.2000-0.4000-0.4000 (  1781 PWs)   bands (ev):

    -8.0740  -8.0370  -8.0063  -7.9970  -7.6479  -7.5757  -7.5643  -7.5499
    -7.5225  -7.5202  -3.7085  -3.7049   0.4967   0.5316   3.7551   3.8030
     5.4404   5.4411   9.5423   9.5629  11.9591  11.9931  13.0109  13.0115
    14.9281  14.9538

          k =-0.4000-1.2000 0.4000 (  1781 PWs)   bands (ev):

    -8.0740  -8.0370  -8.0063  -7.9970  -7.6479  -7.5757  -7.5643  -7.5499
    -7.5225  -7.5202  -3.7085  -3.7049   0.4967   0.5316   3.7551   3.8030
     5.4404   5.4411   9.5423   9.5629  11.9591  11.9931  13.0109  13.0115
    14.9281  14.9538

          k =-0.6000-1.0000 0.2000 (  1787 PWs)   bands (ev):

    -8.0826  -8.0387  -8.0002  -7.9915  -7.6584  -7.5748  -7.5523  -7.5436
    -7.5261  -7.5214  -3.4408  -3.4388   0.5773   0.6280   3.3296   3.4003
     4.3063   4.3447  10.9497  11.0497  11.3347  11.3644  12.2056  12.2691
    15.3805  15.4040

          k =-0.6000-0.6000 0.2000 (  1781 PWs)   bands (ev):

    -8.0740  -8.0370  -8.0063  -7.9970  -7.6479  -7.5757  -7.5643  -7.5499
    -7.5225  -7.5202  -3.7085  -3.7049   0.4967   0.5316   3.7551   3.8030
     5.4404   5.4411   9.5423   9.5629  11.9591  11.9931  13.0109  13.0115
    14.9281  14.9538

          k =-0.8000-0.4000 0.0000 (  1787 PWs)   bands (ev):

    -8.0826  -8.0387  -8.0002  -7.9915  -7.6584  -7.5748  -7.5523  -7.5436
    -7.5261  -7.5214  -3.4408  -3.4388   0.5773   0.6280   3.3296   3.4003
     4.3063   4.3447  10.9497  11.0497  11.3347  11.3644  12.2056  12.2691
    15.3805  15.4040

          k =-1.0000-0.2000-0.2000 (  1764 PWs)   bands (ev):

    -8.0819  -8.0456  -8.0002  -7.9901  -7.6504  -7.5883  -7.5432  -7.5372
    -7.5310  -7.5176  -3.2050  -3.2046   0.2396   0.2816   3.2732   3.3225
     4.5909   4.5935   8.8625   8.8629  10.8356  10.8778  15.6177  15.6794
    15.8424  15.8464

          k =-0.2000-1.0000 0.6000 (  1787 PWs)   bands (ev):

    -8.0826  -8.0387  -8.0002  -7.9915  -7.6584  -7.5748  -7.5523  -7.5436
    -7.5261  -7.5214  -3.4408  -3.4388   0.5773   0.6280   3.3296   3.4003
     4.3063   4.3447  10.9497  11.0497  11.3347  11.3644  12.2056  12.2691
    15.3805  15.4040

          k =-0.4000-0.8000 0.4000 (  1781 PWs)   bands (ev):

    -8.0740  -8.0370  -8.0063  -7.9970  -7.6479  -7.5757  -7.5643  -7.5499
    -7.5225  -7.5202  -3.7085  -3.7049   0.4967   0.5316   3.7551   3.8030
     5.4404   5.4411   9.5423   9.5629  11.9591  11.9931  13.0109  13.0115
    14.9281  14.9538

     the Fermi energy is     7.4977 ev

!    total energy              =    -190.99725566 Ry
     estimated scf accuracy    <          3.4E-10 Ry
     smearing contrib. (-TS)   =      -0.00000000 Ry
     internal energy E=F+TS    =    -190.99725566 Ry

     The total energy is F=E-TS. E is the sum of the following terms:
     one-electron contribution =    -110.60280071 Ry
     hartree contribution      =      71.28082268 Ry
     xc contribution           =     -57.94063826 Ry
     ewald contribution        =     -93.73463937 Ry

     convergence has been achieved in  10 iterations

     Writing all to output data dir ./GaAs.save/

     init_run     :     14.80s CPU      4.34s WALL (       1 calls)
     electrons    :    570.14s CPU    119.70s WALL (       1 calls)

     Called by init_run:
     wfcinit      :     13.70s CPU      3.48s WALL (       1 calls)
     potinit      :      0.05s CPU      0.06s WALL (       1 calls)
     hinit0       :      0.62s CPU      0.62s WALL (       1 calls)

     Called by electrons:
     c_bands      :    456.12s CPU     95.32s WALL (      11 calls)
     sum_band     :    101.74s CPU     21.50s WALL (      11 calls)
     v_of_rho     :      1.80s CPU      0.53s WALL (      11 calls)
     newd         :      9.28s CPU      2.09s WALL (      11 calls)
     mix_rho      :      1.00s CPU      0.27s WALL (      11 calls)

     Called by c_bands:
     init_us_2    :      5.07s CPU      0.80s WALL (    1449 calls)
     init_us_2:cp :      5.06s CPU      0.79s WALL (    1449 calls)
     cegterg      :    424.75s CPU     90.76s WALL (     693 calls)

     Called by *egterg:
     cdiaghg      :     11.33s CPU      1.56s WALL (    2032 calls)
     h_psi        :    350.65s CPU     80.89s WALL (    2158 calls)
     s_psi        :      9.40s CPU      1.72s WALL (    2158 calls)
     g_psi        :      1.41s CPU      0.26s WALL (    1402 calls)

     Called by h_psi:
     h_psi:calbec :     18.76s CPU      3.90s WALL (    2158 calls)
     vloc_psi     :    323.35s CPU     75.17s WALL (    2158 calls)
     add_vuspsi   :      7.05s CPU      1.52s WALL (    2158 calls)

     General routines
     calbec       :     27.41s CPU      5.79s WALL (    2851 calls)
     fft          :      2.75s CPU      0.77s WALL (     265 calls)
     ffts         :      0.35s CPU      0.07s WALL (      88 calls)
     fftw         :    320.85s CPU     72.92s WALL (  209592 calls)
     interpolate  :      0.58s CPU      0.19s WALL (      44 calls)


     PWSCF        :   9m46.65s CPU   2m 4.49s WALL


   This run was terminated on:  18:45:53  12May2024            

=------------------------------------------------------------------------------=
   JOB DONE.
=------------------------------------------------------------------------------=
