
     Program PWSCF v.7.2 starts on 12May2024 at 18:41:52 

     This program is part of the open-source Quantum ESPRESSO suite
     for quantum simulation of materials; please cite
         "P. Giannozzi et al., J. Phys.:Condens. Matter 21 395502 (2009);
         "P. Giannozzi et al., J. Phys.:Condens. Matter 29 465901 (2017);
         "P. Giannozzi et al., J. Chem. Phys. 152 154105 (2020);
          URL http://www.quantum-espresso.org", 
     in publications or presentations arising from this work. More details at
     http://www.quantum-espresso.org/quote

     Serial version
     0 MiB available memory on the printing compute node when the environment starts

     Waiting for input...
     Reading input from standard input

     Current dimensions of program PWSCF are:
     Max number of different atomic species (ntypx) = 10
     Max number of k-points (npk) =  40000
     Max angular momentum in pseudopotentials (lmaxx) =  4
     file Ga.rel-pbe-dn-rrkjus_psl.0.2.UPF: wavefunction(s)  4S 3D 3D renormalized


     G-vector sticks info
     --------------------
     sticks:   dense  smooth     PW     G-vecs:    dense   smooth      PW
     Sum        1519     757    241                39189    13803    2421

     Using Slab Decomposition



     bravais-lattice index     =            2
     lattice parameter (alat)  =      10.4953  a.u.
     unit-cell volume          =     289.0219 (a.u.)^3
     number of atoms/cell      =            2
     number of atomic types    =            2
     number of electrons       =        18.00
     number of Kohn-Sham states=           26
     kinetic-energy cutoff     =      50.0000  Ry
     charge density cutoff     =     400.0000  Ry
     scf convergence threshold =      1.0E-08
     mixing beta               =       0.3000
     number of iterations used =            8  plain     mixing
     Exchange-correlation= PBE
                           (   1   4   3   4   0   0   0)
     Non magnetic calculation with spin-orbit


     celldm(1)=  10.495349  celldm(2)=   0.000000  celldm(3)=   0.000000
     celldm(4)=   0.000000  celldm(5)=   0.000000  celldm(6)=   0.000000

     crystal axes: (cart. coord. in units of alat)
               a(1) = (  -0.500000   0.000000   0.500000 )  
               a(2) = (   0.000000   0.500000   0.500000 )  
               a(3) = (  -0.500000   0.500000   0.000000 )  

     reciprocal axes: (cart. coord. in units 2 pi/alat)
               b(1) = ( -1.000000 -1.000000  1.000000 )  
               b(2) = (  1.000000  1.000000  1.000000 )  
               b(3) = ( -1.000000  1.000000 -1.000000 )  


     PseudoPot. # 1 for As read from file:
     ../pseudopotential/As.rel-pbe-n-rrkjus_psl.0.2.UPF
     MD5 check sum: fd1d9cb43fef956eb1cdd0c60ce90062
     Pseudo is Ultrasoft + core correction, Zval =  5.0
     Generated using "atomic" code by A. Dal Corso  v.5.0.2 svn rev. 9415
     Using radial grid of 1209 points,  6 beta functions with: 
                l(1) =   0
                l(2) =   0
                l(3) =   1
                l(4) =   1
                l(5) =   1
                l(6) =   1
     Q(r) pseudized with 0 coefficients 


     PseudoPot. # 2 for Ga read from file:
     ../pseudopotential/Ga.rel-pbe-dn-rrkjus_psl.0.2.UPF
     MD5 check sum: b82f27152fdba9c8aaf7d704465ad383
     Pseudo is Ultrasoft + core correction, Zval = 13.0
     Generated using "atomic" code by A. Dal Corso  v.5.0.2 svn rev. 9415
     Using radial grid of 1205 points, 10 beta functions with: 
                l(1) =   0
                l(2) =   0
                l(3) =   1
                l(4) =   1
                l(5) =   1
                l(6) =   1
                l(7) =   2
                l(8) =   2
                l(9) =   2
               l(10) =   2
     Q(r) pseudized with 0 coefficients 


     atomic species   valence    mass     pseudopotential
        As             5.00    74.92160     As( 1.00)
        Ga            13.00    69.72000     Ga( 1.00)

     No symmetry found



   Cartesian axes

     site n.     atom                  positions (alat units)
         1           Ga  tau(   1) = (   0.0000000   0.0000000   0.0000000  )
         2           As  tau(   2) = (   0.2500000   0.2500000   0.2500000  )

     number of k points=    63  Gaussian smearing, width (Ry)=  0.0020
                       cart. coord. in units 2pi/alat
        k(    1) = (   0.0000000   0.0000000   0.0000000), wk =   0.0080000
        k(    2) = (  -0.2000000   0.2000000  -0.2000000), wk =   0.0160000
        k(    3) = (  -0.4000000   0.4000000  -0.4000000), wk =   0.0160000
        k(    4) = (   0.2000000   0.2000000   0.2000000), wk =   0.0160000
        k(    5) = (   0.0000000   0.4000000   0.0000000), wk =   0.0160000
        k(    6) = (  -0.2000000   0.6000000  -0.2000000), wk =   0.0160000
        k(    7) = (   0.6000000  -0.2000000   0.6000000), wk =   0.0160000
        k(    8) = (   0.4000000   0.0000000   0.4000000), wk =   0.0160000
        k(    9) = (   0.4000000   0.4000000   0.4000000), wk =   0.0160000
        k(   10) = (   0.2000000   0.6000000   0.2000000), wk =   0.0160000
        k(   11) = (   0.0000000   0.8000000   0.0000000), wk =   0.0160000
        k(   12) = (   0.8000000   0.0000000   0.8000000), wk =   0.0160000
        k(   13) = (   0.6000000   0.2000000   0.6000000), wk =   0.0160000
        k(   14) = (  -0.2000000  -0.2000000   0.2000000), wk =   0.0160000
        k(   15) = (  -0.4000000   0.0000000   0.0000000), wk =   0.0160000
        k(   16) = (  -0.6000000   0.2000000  -0.2000000), wk =   0.0160000
        k(   17) = (   0.2000000  -0.6000000   0.6000000), wk =   0.0160000
        k(   18) = (  -0.0000000  -0.4000000   0.4000000), wk =   0.0160000
        k(   19) = (   0.0000000   0.0000000   0.4000000), wk =   0.0160000
        k(   20) = (  -0.2000000   0.2000000   0.2000000), wk =   0.0160000
        k(   21) = (  -0.4000000   0.4000000   0.0000000), wk =   0.0160000
        k(   22) = (   0.4000000  -0.4000000   0.8000000), wk =   0.0160000
        k(   23) = (   0.2000000  -0.2000000   0.6000000), wk =   0.0160000
        k(   24) = (   0.2000000   0.2000000   0.6000000), wk =   0.0160000
        k(   25) = (   0.0000000   0.4000000   0.4000000), wk =   0.0160000
        k(   26) = (  -0.2000000   0.6000000   0.2000000), wk =   0.0160000
        k(   27) = (   0.6000000  -0.2000000   1.0000000), wk =   0.0160000
        k(   28) = (   0.4000000   0.0000000   0.8000000), wk =   0.0160000
        k(   29) = (  -0.6000000  -0.6000000  -0.2000000), wk =   0.0160000
        k(   30) = (  -0.8000000  -0.4000000  -0.4000000), wk =   0.0160000
        k(   31) = (  -1.0000000  -0.2000000  -0.6000000), wk =   0.0160000
        k(   32) = (  -0.2000000  -1.0000000   0.2000000), wk =   0.0160000
        k(   33) = (  -0.4000000  -0.8000000  -0.0000000), wk =   0.0160000
        k(   34) = (  -0.4000000  -0.4000000   0.0000000), wk =   0.0160000
        k(   35) = (  -0.6000000  -0.2000000  -0.2000000), wk =   0.0160000
        k(   36) = (  -0.8000000   0.0000000  -0.4000000), wk =   0.0160000
        k(   37) = (   0.0000000  -0.8000000   0.4000000), wk =   0.0160000
        k(   38) = (  -0.2000000  -0.6000000   0.2000000), wk =   0.0160000
        k(   39) = (  -0.4000000  -0.4000000   0.4000000), wk =   0.0160000
        k(   40) = (  -0.6000000  -0.2000000   0.2000000), wk =   0.0160000
        k(   41) = (  -0.8000000   0.0000000   0.0000000), wk =   0.0160000
        k(   42) = (   0.0000000  -0.8000000   0.8000000), wk =   0.0160000
        k(   43) = (  -0.2000000  -0.6000000   0.6000000), wk =   0.0160000
        k(   44) = (  -0.2000000  -0.2000000   0.6000000), wk =   0.0160000
        k(   45) = (  -0.4000000   0.0000000   0.4000000), wk =   0.0160000
        k(   46) = (  -0.6000000   0.2000000   0.2000000), wk =   0.0160000
        k(   47) = (   0.2000000  -0.6000000   1.0000000), wk =   0.0160000
        k(   48) = (  -0.0000000  -0.4000000   0.8000000), wk =   0.0160000
        k(   49) = (   0.0000000   0.0000000   0.8000000), wk =   0.0160000
        k(   50) = (  -0.2000000   0.2000000   0.6000000), wk =   0.0160000
        k(   51) = (  -0.4000000   0.4000000   0.4000000), wk =   0.0160000
        k(   52) = (   0.4000000  -0.4000000   1.2000000), wk =   0.0160000
        k(   53) = (   0.2000000  -0.2000000   1.0000000), wk =   0.0160000
        k(   54) = (  -0.8000000  -0.8000000   0.0000000), wk =   0.0160000
        k(   55) = (  -1.0000000  -0.6000000  -0.2000000), wk =   0.0160000
        k(   56) = (  -1.2000000  -0.4000000  -0.4000000), wk =   0.0160000
        k(   57) = (  -0.4000000  -1.2000000   0.4000000), wk =   0.0160000
        k(   58) = (  -0.6000000  -1.0000000   0.2000000), wk =   0.0160000
        k(   59) = (  -0.6000000  -0.6000000   0.2000000), wk =   0.0160000
        k(   60) = (  -0.8000000  -0.4000000   0.0000000), wk =   0.0160000
        k(   61) = (  -1.0000000  -0.2000000  -0.2000000), wk =   0.0160000
        k(   62) = (  -0.2000000  -1.0000000   0.6000000), wk =   0.0160000
        k(   63) = (  -0.4000000  -0.8000000   0.4000000), wk =   0.0160000

     Dense  grid:    39189 G-vectors     FFT dimensions: (  48,  48,  48)

     Smooth grid:    13803 G-vectors     FFT dimensions: (  36,  36,  36)

     Estimated max dynamical RAM per process >     536.11 MB

     Initial potential from superposition of free atoms

     starting charge      17.9971, renormalised to      18.0000
     Starting wfcs are   26 randomized atomic wfcs

     total cpu time spent up to now is        5.0 secs

     Self-consistent Calculation

     iteration #  1     ecut=    50.00 Ry     beta= 0.30
     Davidson diagonalization with overlap
     ethr =  1.00E-02,  avg # of iterations =  4.0

     Threshold (ethr) on eigenvalues was too large:
     Diagonalizing with lowered threshold

     Davidson diagonalization with overlap
     ethr =  2.83E-04,  avg # of iterations =  2.1

     total cpu time spent up to now is       25.8 secs

     total energy              =    -190.99242375 Ry
     estimated scf accuracy    <       0.05073557 Ry

     iteration #  2     ecut=    50.00 Ry     beta= 0.30
     Davidson diagonalization with overlap
     ethr =  2.82E-04,  avg # of iterations =  1.3

     total cpu time spent up to now is       34.6 secs

     total energy              =    -190.99211734 Ry
     estimated scf accuracy    <       0.01482890 Ry

     iteration #  3     ecut=    50.00 Ry     beta= 0.30
     Davidson diagonalization with overlap
     ethr =  8.24E-05,  avg # of iterations =  1.9

     total cpu time spent up to now is       43.6 secs

     total energy              =    -190.99297712 Ry
     estimated scf accuracy    <       0.00229954 Ry

     iteration #  4     ecut=    50.00 Ry     beta= 0.30
     Davidson diagonalization with overlap
     ethr =  1.28E-05,  avg # of iterations =  2.4

     total cpu time spent up to now is       53.7 secs

     total energy              =    -190.99309529 Ry
     estimated scf accuracy    <       0.00006353 Ry

     iteration #  5     ecut=    50.00 Ry     beta= 0.30
     Davidson diagonalization with overlap
     ethr =  3.53E-07,  avg # of iterations =  2.5

     total cpu time spent up to now is       65.2 secs

     total energy              =    -190.99312003 Ry
     estimated scf accuracy    <       0.00004139 Ry

     iteration #  6     ecut=    50.00 Ry     beta= 0.30
     Davidson diagonalization with overlap
     ethr =  2.30E-07,  avg # of iterations =  1.0

     total cpu time spent up to now is       74.0 secs

     total energy              =    -190.99311848 Ry
     estimated scf accuracy    <       0.00000656 Ry

     iteration #  7     ecut=    50.00 Ry     beta= 0.30
     Davidson diagonalization with overlap
     ethr =  3.65E-08,  avg # of iterations =  2.0

     total cpu time spent up to now is       85.1 secs

     total energy              =    -190.99312138 Ry
     estimated scf accuracy    <       0.00000169 Ry

     iteration #  8     ecut=    50.00 Ry     beta= 0.30
     Davidson diagonalization with overlap
     ethr =  9.36E-09,  avg # of iterations =  1.0

     total cpu time spent up to now is       93.8 secs

     total energy              =    -190.99312089 Ry
     estimated scf accuracy    <       0.00000067 Ry

     iteration #  9     ecut=    50.00 Ry     beta= 0.30
     Davidson diagonalization with overlap
     ethr =  3.74E-09,  avg # of iterations =  2.0

     total cpu time spent up to now is      105.0 secs

     total energy              =    -190.99312113 Ry
     estimated scf accuracy    <       0.00000014 Ry

     iteration # 10     ecut=    50.00 Ry     beta= 0.30
     Davidson diagonalization with overlap
     ethr =  7.92E-10,  avg # of iterations =  2.0

     total cpu time spent up to now is      116.3 secs

     End of self-consistent calculation

          k = 0.0000 0.0000 0.0000 (  1759 PWs)   bands (ev):

    -7.6940  -7.6940  -7.6940  -7.6940  -7.2746  -7.2746  -7.2114  -7.2114
    -7.2114  -7.2114  -5.6623  -5.6623   7.2385   7.2385   7.5809   7.5809
     7.5809   7.5809   8.4055   8.4055  11.0575  11.0575  11.2550  11.2550
    11.2550  11.2550

          k =-0.2000 0.2000-0.2000 (  1748 PWs)   bands (ev):

    -7.7049  -7.7049  -7.6951  -7.6881  -7.2814  -7.2814  -7.2233  -7.2233
    -7.2078  -7.2000  -5.1694  -5.1694   4.0970   4.0970   6.8109   6.8109
     7.0254   7.0296   9.2474   9.2474  11.8675  11.8675  12.0033  12.0062
    12.8641  12.8641

          k =-0.4000 0.4000-0.4000 (  1718 PWs)   bands (ev):

    -7.7231  -7.7231  -7.6905  -7.6862  -7.2851  -7.2851  -7.2364  -7.2364
    -7.1933  -7.1885  -4.0247  -4.0247   1.0511   1.0511   6.2131   6.2131
     6.4238   6.4260   8.6932   8.6932  12.0967  12.0967  12.1939  12.1952
    15.3483  15.3483

          k = 0.2000 0.2000 0.2000 (  1748 PWs)   bands (ev):

    -7.7049  -7.7049  -7.6951  -7.6881  -7.2814  -7.2814  -7.2233  -7.2233
    -7.2078  -7.2000  -5.1694  -5.1694   4.0970   4.0970   6.8109   6.8109
     7.0254   7.0296   9.2474   9.2474  11.8675  11.8675  12.0033  12.0062
    12.8641  12.8641

          k = 0.0000 0.4000 0.0000 (  1736 PWs)   bands (ev):

    -7.7141  -7.7141  -7.6841  -7.6841  -7.2856  -7.2856  -7.2123  -7.2123
    -7.2108  -7.2108  -5.0061  -5.0061   4.1968   4.1968   5.9954   5.9954
     6.1183   6.1183   9.7505   9.7505  11.0078  11.0078  13.4016  13.4016
    13.4219  13.4219

          k =-0.2000 0.6000-0.2000 (  1717 PWs)   bands (ev):

    -7.7452  -7.7156  -7.6815  -7.6728  -7.3172  -7.2669  -7.2232  -7.2208
    -7.1980  -7.1962  -4.0375  -4.0327   1.7928   1.8177   4.8335   4.8766
     5.4974   5.5038   9.8605   9.8691  11.7211  11.7824  13.2655  13.3098
    14.0899  14.0925

          k = 0.6000-0.2000 0.6000 (  1728 PWs)   bands (ev):

    -7.7566  -7.7148  -7.6792  -7.6690  -7.3309  -7.2508  -7.2388  -7.2234
    -7.1929  -7.1903  -3.4429  -3.4385   0.7311   0.7661   4.0226   4.0683
     5.7562   5.7566   9.9702   9.9879  12.4096  12.4440  13.4474  13.4481
    15.4564  15.4861

          k = 0.4000 0.0000 0.4000 (  1732 PWs)   bands (ev):

    -7.7366  -7.7103  -7.6819  -7.6787  -7.3150  -7.2613  -7.2342  -7.2209
    -7.1999  -7.1966  -4.4356  -4.4290   2.5168   2.5549   4.5727   4.6294
     6.6225   6.6239  10.3674  10.4157  12.4779  12.4927  12.5239  12.5487
    13.2076  13.2322

          k = 0.4000 0.4000 0.4000 (  1718 PWs)   bands (ev):

    -7.7231  -7.7231  -7.6905  -7.6862  -7.2851  -7.2851  -7.2364  -7.2364
    -7.1933  -7.1885  -4.0247  -4.0247   1.0511   1.0511   6.2131   6.2131
     6.4238   6.4260   8.6932   8.6932  12.0967  12.0967  12.1939  12.1952
    15.3483  15.3483

          k = 0.2000 0.6000 0.2000 (  1717 PWs)   bands (ev):

    -7.7452  -7.7156  -7.6815  -7.6728  -7.3172  -7.2669  -7.2232  -7.2208
    -7.1980  -7.1962  -4.0375  -4.0327   1.7928   1.8177   4.8335   4.8766
     5.4974   5.5038   9.8605   9.8691  11.7211  11.7824  13.2655  13.3098
    14.0899  14.0925

          k = 0.0000 0.8000 0.0000 (  1720 PWs)   bands (ev):

    -7.7430  -7.7430  -7.6704  -7.6704  -7.2951  -7.2951  -7.2119  -7.2119
    -7.1941  -7.1941  -3.4018  -3.4018   1.0594   1.0594   4.7144   4.7144
     4.8006   4.8006   8.7892   8.7892   9.5238   9.5238  16.9280  16.9280
    17.0044  17.0044

          k = 0.8000 0.0000 0.8000 (  1716 PWs)   bands (ev):

    -7.7652  -7.7249  -7.6725  -7.6611  -7.3326  -7.2638  -7.2163  -7.2088
    -7.2026  -7.1873  -2.9085  -2.9083   0.4818   0.5251   3.5010   3.5492
     4.8738   4.8761   9.2130   9.2145  11.2534  11.2935  16.1882  16.2541
    16.3889  16.3911

          k = 0.6000 0.2000 0.6000 (  1728 PWs)   bands (ev):

    -7.7566  -7.7148  -7.6792  -7.6690  -7.3309  -7.2508  -7.2388  -7.2234
    -7.1929  -7.1903  -3.4429  -3.4385   0.7311   0.7661   4.0226   4.0683
     5.7562   5.7566   9.9702   9.9879  12.4096  12.4440  13.4474  13.4481
    15.4564  15.4861

          k =-0.2000-0.2000 0.2000 (  1748 PWs)   bands (ev):

    -7.7049  -7.7049  -7.6951  -7.6881  -7.2814  -7.2814  -7.2233  -7.2233
    -7.2078  -7.2000  -5.1694  -5.1694   4.0970   4.0970   6.8109   6.8109
     7.0254   7.0296   9.2474   9.2474  11.8675  11.8675  12.0033  12.0062
    12.8641  12.8641

          k =-0.4000 0.0000 0.0000 (  1736 PWs)   bands (ev):

    -7.7141  -7.7141  -7.6841  -7.6841  -7.2856  -7.2856  -7.2123  -7.2123
    -7.2108  -7.2108  -5.0061  -5.0061   4.1968   4.1968   5.9954   5.9954
     6.1183   6.1183   9.7505   9.7505  11.0078  11.0078  13.4016  13.4016
    13.4219  13.4219

          k =-0.6000 0.2000-0.2000 (  1717 PWs)   bands (ev):

    -7.7452  -7.7156  -7.6815  -7.6728  -7.3172  -7.2669  -7.2232  -7.2208
    -7.1980  -7.1962  -4.0375  -4.0327   1.7928   1.8177   4.8335   4.8766
     5.4974   5.5038   9.8605   9.8691  11.7211  11.7824  13.2655  13.3098
    14.0899  14.0925

          k = 0.2000-0.6000 0.6000 (  1728 PWs)   bands (ev):

    -7.7566  -7.7148  -7.6792  -7.6690  -7.3309  -7.2508  -7.2388  -7.2234
    -7.1929  -7.1903  -3.4429  -3.4385   0.7311   0.7661   4.0226   4.0683
     5.7562   5.7566   9.9702   9.9879  12.4096  12.4440  13.4474  13.4481
    15.4564  15.4861

          k =-0.0000-0.4000 0.4000 (  1732 PWs)   bands (ev):

    -7.7366  -7.7103  -7.6819  -7.6787  -7.3150  -7.2613  -7.2342  -7.2209
    -7.1999  -7.1966  -4.4356  -4.4290   2.5168   2.5549   4.5727   4.6294
     6.6225   6.6239  10.3674  10.4157  12.4779  12.4927  12.5239  12.5487
    13.2076  13.2322

          k = 0.0000 0.0000 0.4000 (  1736 PWs)   bands (ev):

    -7.7141  -7.7141  -7.6841  -7.6841  -7.2856  -7.2856  -7.2123  -7.2123
    -7.2108  -7.2108  -5.0061  -5.0061   4.1968   4.1968   5.9954   5.9954
     6.1183   6.1183   9.7505   9.7505  11.0078  11.0078  13.4016  13.4016
    13.4219  13.4219

          k =-0.2000 0.2000 0.2000 (  1748 PWs)   bands (ev):

    -7.7049  -7.7049  -7.6951  -7.6881  -7.2814  -7.2814  -7.2233  -7.2233
    -7.2078  -7.2000  -5.1694  -5.1694   4.0970   4.0970   6.8109   6.8109
     7.0254   7.0296   9.2474   9.2474  11.8675  11.8675  12.0033  12.0062
    12.8641  12.8641

          k =-0.4000 0.4000 0.0000 (  1732 PWs)   bands (ev):

    -7.7366  -7.7103  -7.6819  -7.6787  -7.3150  -7.2613  -7.2342  -7.2209
    -7.1999  -7.1966  -4.4356  -4.4290   2.5168   2.5549   4.5727   4.6294
     6.6225   6.6239  10.3674  10.4157  12.4779  12.4927  12.5239  12.5487
    13.2076  13.2322

          k = 0.4000-0.4000 0.8000 (  1728 PWs)   bands (ev):

    -7.7566  -7.7148  -7.6792  -7.6690  -7.3309  -7.2508  -7.2388  -7.2234
    -7.1929  -7.1903  -3.4429  -3.4385   0.7311   0.7661   4.0226   4.0683
     5.7562   5.7566   9.9702   9.9879  12.4096  12.4440  13.4474  13.4481
    15.4564  15.4861

          k = 0.2000-0.2000 0.6000 (  1717 PWs)   bands (ev):

    -7.7452  -7.7156  -7.6815  -7.6728  -7.3172  -7.2669  -7.2232  -7.2208
    -7.1980  -7.1962  -4.0375  -4.0327   1.7928   1.8177   4.8335   4.8766
     5.4974   5.5038   9.8605   9.8691  11.7211  11.7824  13.2655  13.3098
    14.0899  14.0925

          k = 0.2000 0.2000 0.6000 (  1717 PWs)   bands (ev):

    -7.7452  -7.7156  -7.6815  -7.6728  -7.3172  -7.2669  -7.2232  -7.2208
    -7.1980  -7.1962  -4.0375  -4.0327   1.7928   1.8177   4.8335   4.8766
     5.4974   5.5038   9.8605   9.8691  11.7211  11.7824  13.2655  13.3098
    14.0899  14.0925

          k = 0.0000 0.4000 0.4000 (  1732 PWs)   bands (ev):

    -7.7366  -7.7103  -7.6819  -7.6787  -7.3150  -7.2613  -7.2342  -7.2209
    -7.1999  -7.1966  -4.4356  -4.4290   2.5168   2.5549   4.5727   4.6294
     6.6225   6.6239  10.3674  10.4157  12.4779  12.4927  12.5239  12.5487
    13.2076  13.2322

          k =-0.2000 0.6000 0.2000 (  1717 PWs)   bands (ev):

    -7.7452  -7.7156  -7.6815  -7.6728  -7.3172  -7.2669  -7.2232  -7.2208
    -7.1980  -7.1962  -4.0375  -4.0327   1.7928   1.8177   4.8335   4.8766
     5.4974   5.5038   9.8605   9.8691  11.7211  11.7824  13.2655  13.3098
    14.0899  14.0925

          k = 0.6000-0.2000 1.0000 (  1721 PWs)   bands (ev):

    -7.7658  -7.7167  -7.6724  -7.6626  -7.3422  -7.2494  -7.2254  -7.2166
    -7.1969  -7.1916  -3.1621  -3.1595   0.8395   0.8915   3.5634   3.6331
     4.5723   4.6100  11.3878  11.4728  11.7956  11.8377  12.6131  12.6769
    15.9135  15.9375

          k = 0.4000 0.0000 0.8000 (  1721 PWs)   bands (ev):

    -7.7658  -7.7167  -7.6724  -7.6626  -7.3422  -7.2494  -7.2254  -7.2166
    -7.1969  -7.1916  -3.1621  -3.1595   0.8395   0.8915   3.5634   3.6331
     4.5723   4.6100  11.3878  11.4728  11.7956  11.8377  12.6131  12.6769
    15.9135  15.9375

          k =-0.6000-0.6000-0.2000 (  1728 PWs)   bands (ev):

    -7.7566  -7.7148  -7.6792  -7.6690  -7.3309  -7.2508  -7.2388  -7.2234
    -7.1929  -7.1903  -3.4429  -3.4385   0.7311   0.7661   4.0226   4.0683
     5.7562   5.7566   9.9702   9.9879  12.4096  12.4440  13.4474  13.4481
    15.4564  15.4861

          k =-0.8000-0.4000-0.4000 (  1728 PWs)   bands (ev):

    -7.7566  -7.7148  -7.6792  -7.6690  -7.3309  -7.2508  -7.2388  -7.2234
    -7.1929  -7.1903  -3.4429  -3.4385   0.7311   0.7661   4.0226   4.0683
     5.7562   5.7566   9.9702   9.9879  12.4096  12.4440  13.4474  13.4481
    15.4564  15.4861

          k =-1.0000-0.2000-0.6000 (  1721 PWs)   bands (ev):

    -7.7658  -7.7167  -7.6724  -7.6626  -7.3422  -7.2494  -7.2254  -7.2166
    -7.1969  -7.1916  -3.1621  -3.1595   0.8395   0.8915   3.5634   3.6331
     4.5723   4.6100  11.3878  11.4728  11.7956  11.8377  12.6131  12.6769
    15.9135  15.9375

          k =-0.2000-1.0000 0.2000 (  1716 PWs)   bands (ev):

    -7.7652  -7.7249  -7.6725  -7.6611  -7.3326  -7.2638  -7.2163  -7.2088
    -7.2026  -7.1873  -2.9085  -2.9083   0.4818   0.5251   3.5010   3.5492
     4.8738   4.8761   9.2130   9.2145  11.2534  11.2935  16.1882  16.2541
    16.3889  16.3911

          k =-0.4000-0.8000-0.0000 (  1721 PWs)   bands (ev):

    -7.7658  -7.7167  -7.6724  -7.6626  -7.3422  -7.2494  -7.2254  -7.2166
    -7.1969  -7.1916  -3.1621  -3.1595   0.8395   0.8915   3.5634   3.6331
     4.5723   4.6100  11.3878  11.4728  11.7956  11.8377  12.6131  12.6769
    15.9135  15.9375

          k =-0.4000-0.4000 0.0000 (  1732 PWs)   bands (ev):

    -7.7366  -7.7103  -7.6819  -7.6787  -7.3150  -7.2613  -7.2342  -7.2209
    -7.1999  -7.1966  -4.4356  -4.4290   2.5168   2.5549   4.5727   4.6294
     6.6225   6.6239  10.3674  10.4157  12.4779  12.4927  12.5239  12.5487
    13.2076  13.2322

          k =-0.6000-0.2000-0.2000 (  1717 PWs)   bands (ev):

    -7.7452  -7.7156  -7.6815  -7.6728  -7.3172  -7.2669  -7.2232  -7.2208
    -7.1980  -7.1962  -4.0375  -4.0327   1.7928   1.8177   4.8335   4.8766
     5.4974   5.5038   9.8605   9.8691  11.7211  11.7824  13.2655  13.3098
    14.0899  14.0925

          k =-0.8000 0.0000-0.4000 (  1721 PWs)   bands (ev):

    -7.7658  -7.7167  -7.6724  -7.6626  -7.3422  -7.2494  -7.2254  -7.2166
    -7.1969  -7.1916  -3.1621  -3.1595   0.8395   0.8915   3.5634   3.6331
     4.5723   4.6100  11.3878  11.4728  11.7956  11.8377  12.6131  12.6769
    15.9135  15.9375

          k = 0.0000-0.8000 0.4000 (  1721 PWs)   bands (ev):

    -7.7658  -7.7167  -7.6724  -7.6626  -7.3422  -7.2494  -7.2254  -7.2166
    -7.1969  -7.1916  -3.1621  -3.1595   0.8395   0.8915   3.5634   3.6331
     4.5723   4.6100  11.3878  11.4728  11.7956  11.8377  12.6131  12.6769
    15.9135  15.9375

          k =-0.2000-0.6000 0.2000 (  1717 PWs)   bands (ev):

    -7.7452  -7.7156  -7.6815  -7.6728  -7.3172  -7.2669  -7.2232  -7.2208
    -7.1980  -7.1962  -4.0375  -4.0327   1.7928   1.8177   4.8335   4.8766
     5.4974   5.5038   9.8605   9.8691  11.7211  11.7824  13.2655  13.3098
    14.0899  14.0925

          k =-0.4000-0.4000 0.4000 (  1718 PWs)   bands (ev):

    -7.7231  -7.7231  -7.6905  -7.6862  -7.2851  -7.2851  -7.2364  -7.2364
    -7.1933  -7.1885  -4.0247  -4.0247   1.0511   1.0511   6.2131   6.2131
     6.4238   6.4260   8.6932   8.6932  12.0967  12.0967  12.1939  12.1952
    15.3483  15.3483

          k =-0.6000-0.2000 0.2000 (  1717 PWs)   bands (ev):

    -7.7452  -7.7156  -7.6815  -7.6728  -7.3172  -7.2669  -7.2232  -7.2208
    -7.1980  -7.1962  -4.0375  -4.0327   1.7928   1.8177   4.8335   4.8766
     5.4974   5.5038   9.8605   9.8691  11.7211  11.7824  13.2655  13.3098
    14.0899  14.0925

          k =-0.8000 0.0000 0.0000 (  1720 PWs)   bands (ev):

    -7.7430  -7.7430  -7.6704  -7.6704  -7.2951  -7.2951  -7.2119  -7.2119
    -7.1941  -7.1941  -3.4018  -3.4018   1.0594   1.0594   4.7144   4.7144
     4.8006   4.8006   8.7892   8.7892   9.5238   9.5238  16.9280  16.9280
    17.0044  17.0045

          k = 0.0000-0.8000 0.8000 (  1716 PWs)   bands (ev):

    -7.7652  -7.7249  -7.6725  -7.6611  -7.3326  -7.2638  -7.2163  -7.2088
    -7.2026  -7.1873  -2.9085  -2.9083   0.4818   0.5251   3.5010   3.5492
     4.8738   4.8761   9.2130   9.2145  11.2534  11.2935  16.1882  16.2541
    16.3889  16.3911

          k =-0.2000-0.6000 0.6000 (  1728 PWs)   bands (ev):

    -7.7566  -7.7148  -7.6792  -7.6690  -7.3309  -7.2508  -7.2388  -7.2234
    -7.1929  -7.1903  -3.4429  -3.4385   0.7311   0.7661   4.0226   4.0683
     5.7562   5.7566   9.9702   9.9879  12.4096  12.4440  13.4474  13.4481
    15.4564  15.4861

          k =-0.2000-0.2000 0.6000 (  1717 PWs)   bands (ev):

    -7.7452  -7.7156  -7.6815  -7.6728  -7.3172  -7.2669  -7.2232  -7.2208
    -7.1980  -7.1962  -4.0375  -4.0327   1.7928   1.8177   4.8335   4.8766
     5.4974   5.5038   9.8605   9.8691  11.7211  11.7824  13.2655  13.3098
    14.0899  14.0925

          k =-0.4000 0.0000 0.4000 (  1732 PWs)   bands (ev):

    -7.7366  -7.7103  -7.6819  -7.6787  -7.3150  -7.2613  -7.2342  -7.2209
    -7.1999  -7.1966  -4.4356  -4.4290   2.5168   2.5549   4.5727   4.6294
     6.6225   6.6239  10.3674  10.4157  12.4779  12.4927  12.5239  12.5487
    13.2076  13.2322

          k =-0.6000 0.2000 0.2000 (  1717 PWs)   bands (ev):

    -7.7452  -7.7156  -7.6815  -7.6728  -7.3172  -7.2669  -7.2232  -7.2208
    -7.1980  -7.1962  -4.0375  -4.0327   1.7928   1.8177   4.8335   4.8766
     5.4974   5.5038   9.8605   9.8691  11.7211  11.7824  13.2655  13.3098
    14.0899  14.0925

          k = 0.2000-0.6000 1.0000 (  1721 PWs)   bands (ev):

    -7.7658  -7.7167  -7.6724  -7.6626  -7.3422  -7.2494  -7.2254  -7.2166
    -7.1969  -7.1916  -3.1621  -3.1595   0.8395   0.8915   3.5634   3.6331
     4.5723   4.6100  11.3878  11.4728  11.7956  11.8377  12.6131  12.6769
    15.9135  15.9375

          k =-0.0000-0.4000 0.8000 (  1721 PWs)   bands (ev):

    -7.7658  -7.7167  -7.6724  -7.6626  -7.3422  -7.2494  -7.2254  -7.2166
    -7.1969  -7.1916  -3.1621  -3.1595   0.8395   0.8915   3.5634   3.6331
     4.5723   4.6100  11.3878  11.4728  11.7956  11.8377  12.6131  12.6769
    15.9135  15.9375

          k = 0.0000 0.0000 0.8000 (  1720 PWs)   bands (ev):

    -7.7430  -7.7430  -7.6704  -7.6704  -7.2951  -7.2951  -7.2119  -7.2119
    -7.1941  -7.1941  -3.4018  -3.4018   1.0594   1.0594   4.7144   4.7144
     4.8006   4.8006   8.7892   8.7892   9.5238   9.5238  16.9280  16.9280
    17.0044  17.0045

          k =-0.2000 0.2000 0.6000 (  1717 PWs)   bands (ev):

    -7.7452  -7.7156  -7.6815  -7.6728  -7.3172  -7.2669  -7.2232  -7.2208
    -7.1980  -7.1962  -4.0375  -4.0327   1.7928   1.8177   4.8335   4.8766
     5.4974   5.5038   9.8605   9.8691  11.7211  11.7824  13.2655  13.3098
    14.0899  14.0925

          k =-0.4000 0.4000 0.4000 (  1718 PWs)   bands (ev):

    -7.7231  -7.7231  -7.6905  -7.6862  -7.2851  -7.2851  -7.2364  -7.2364
    -7.1933  -7.1885  -4.0247  -4.0247   1.0511   1.0511   6.2131   6.2131
     6.4238   6.4260   8.6932   8.6932  12.0967  12.0967  12.1939  12.1952
    15.3483  15.3483

          k = 0.4000-0.4000 1.2000 (  1728 PWs)   bands (ev):

    -7.7566  -7.7148  -7.6792  -7.6690  -7.3309  -7.2508  -7.2388  -7.2234
    -7.1929  -7.1903  -3.4429  -3.4385   0.7311   0.7661   4.0226   4.0683
     5.7562   5.7566   9.9702   9.9879  12.4096  12.4440  13.4474  13.4481
    15.4564  15.4861

          k = 0.2000-0.2000 1.0000 (  1716 PWs)   bands (ev):

    -7.7652  -7.7249  -7.6725  -7.6611  -7.3326  -7.2638  -7.2163  -7.2088
    -7.2026  -7.1873  -2.9085  -2.9083   0.4818   0.5251   3.5010   3.5492
     4.8738   4.8761   9.2130   9.2145  11.2534  11.2935  16.1882  16.2541
    16.3889  16.3911

          k =-0.8000-0.8000 0.0000 (  1716 PWs)   bands (ev):

    -7.7652  -7.7249  -7.6725  -7.6611  -7.3326  -7.2638  -7.2163  -7.2088
    -7.2026  -7.1873  -2.9085  -2.9083   0.4818   0.5251   3.5010   3.5492
     4.8738   4.8761   9.2130   9.2145  11.2534  11.2935  16.1882  16.2541
    16.3889  16.3911

          k =-1.0000-0.6000-0.2000 (  1721 PWs)   bands (ev):

    -7.7658  -7.7167  -7.6724  -7.6626  -7.3422  -7.2494  -7.2254  -7.2166
    -7.1969  -7.1916  -3.1621  -3.1595   0.8395   0.8915   3.5634   3.6331
     4.5723   4.6100  11.3878  11.4728  11.7956  11.8377  12.6131  12.6769
    15.9135  15.9375

          k =-1.2000-0.4000-0.4000 (  1728 PWs)   bands (ev):

    -7.7566  -7.7148  -7.6792  -7.6690  -7.3309  -7.2508  -7.2388  -7.2234
    -7.1929  -7.1903  -3.4429  -3.4385   0.7311   0.7661   4.0226   4.0683
     5.7562   5.7566   9.9702   9.9879  12.4096  12.4440  13.4474  13.4481
    15.4564  15.4861

          k =-0.4000-1.2000 0.4000 (  1728 PWs)   bands (ev):

    -7.7566  -7.7148  -7.6792  -7.6690  -7.3309  -7.2508  -7.2388  -7.2234
    -7.1929  -7.1903  -3.4429  -3.4385   0.7311   0.7661   4.0226   4.0683
     5.7562   5.7566   9.9702   9.9879  12.4096  12.4440  13.4474  13.4481
    15.4564  15.4861

          k =-0.6000-1.0000 0.2000 (  1721 PWs)   bands (ev):

    -7.7658  -7.7167  -7.6724  -7.6626  -7.3422  -7.2494  -7.2254  -7.2166
    -7.1969  -7.1916  -3.1621  -3.1595   0.8395   0.8915   3.5634   3.6331
     4.5723   4.6100  11.3878  11.4728  11.7956  11.8377  12.6131  12.6769
    15.9135  15.9375

          k =-0.6000-0.6000 0.2000 (  1728 PWs)   bands (ev):

    -7.7566  -7.7148  -7.6792  -7.6690  -7.3309  -7.2508  -7.2388  -7.2234
    -7.1929  -7.1903  -3.4429  -3.4385   0.7311   0.7661   4.0226   4.0683
     5.7562   5.7566   9.9702   9.9879  12.4096  12.4440  13.4474  13.4481
    15.4564  15.4861

          k =-0.8000-0.4000 0.0000 (  1721 PWs)   bands (ev):

    -7.7658  -7.7167  -7.6724  -7.6626  -7.3422  -7.2494  -7.2254  -7.2166
    -7.1969  -7.1916  -3.1621  -3.1595   0.8395   0.8915   3.5634   3.6331
     4.5723   4.6100  11.3878  11.4728  11.7956  11.8377  12.6131  12.6769
    15.9135  15.9375

          k =-1.0000-0.2000-0.2000 (  1716 PWs)   bands (ev):

    -7.7652  -7.7249  -7.6725  -7.6611  -7.3326  -7.2638  -7.2163  -7.2088
    -7.2026  -7.1873  -2.9085  -2.9083   0.4818   0.5251   3.5010   3.5492
     4.8738   4.8761   9.2130   9.2145  11.2534  11.2935  16.1882  16.2541
    16.3889  16.3911

          k =-0.2000-1.0000 0.6000 (  1721 PWs)   bands (ev):

    -7.7658  -7.7167  -7.6724  -7.6626  -7.3422  -7.2494  -7.2254  -7.2166
    -7.1969  -7.1916  -3.1621  -3.1595   0.8395   0.8915   3.5634   3.6331
     4.5723   4.6100  11.3878  11.4728  11.7956  11.8377  12.6131  12.6769
    15.9135  15.9375

          k =-0.4000-0.8000 0.4000 (  1728 PWs)   bands (ev):

    -7.7566  -7.7148  -7.6792  -7.6690  -7.3309  -7.2508  -7.2388  -7.2234
    -7.1929  -7.1903  -3.4429  -3.4385   0.7311   0.7661   4.0226   4.0683
     5.7562   5.7566   9.9702   9.9879  12.4096  12.4440  13.4474  13.4481
    15.4564  15.4861

     the Fermi energy is     7.7836 ev

!    total energy              =    -190.99312116 Ry
     estimated scf accuracy    <          8.9E-10 Ry
     smearing contrib. (-TS)   =      -0.00000000 Ry
     internal energy E=F+TS    =    -190.99312116 Ry

     The total energy is F=E-TS. E is the sum of the following terms:
     one-electron contribution =    -109.08037582 Ry
     hartree contribution      =      70.74203276 Ry
     xc contribution           =     -57.97332419 Ry
     ewald contribution        =     -94.68145391 Ry

     convergence has been achieved in  10 iterations

     Writing all to output data dir ./GaAs.save/

     init_run     :     20.02s CPU      4.65s WALL (       1 calls)
     electrons    :    483.77s CPU    111.26s WALL (       1 calls)

     Called by init_run:
     wfcinit      :     18.47s CPU      3.77s WALL (       1 calls)
     potinit      :      0.05s CPU      0.05s WALL (       1 calls)
     hinit0       :      0.61s CPU      0.61s WALL (       1 calls)

     Called by electrons:
     c_bands      :    391.07s CPU     89.89s WALL (      11 calls)
     sum_band     :     83.80s CPU     18.76s WALL (      11 calls)
     v_of_rho     :      1.58s CPU      0.53s WALL (      11 calls)
     newd         :      6.93s CPU      1.87s WALL (      11 calls)
     mix_rho      :      0.76s CPU      0.27s WALL (      11 calls)

     Called by c_bands:
     init_us_2    :      4.96s CPU      0.76s WALL (    1449 calls)
     init_us_2:cp :      4.96s CPU      0.76s WALL (    1449 calls)
     cegterg      :    359.70s CPU     85.26s WALL (     693 calls)

     Called by *egterg:
     cdiaghg      :      9.98s CPU      1.37s WALL (    2035 calls)
     h_psi        :    310.07s CPU     78.41s WALL (    2161 calls)
     s_psi        :      6.18s CPU      1.32s WALL (    2161 calls)
     g_psi        :      1.22s CPU      0.23s WALL (    1405 calls)

     Called by h_psi:
     h_psi:calbec :      7.97s CPU      2.22s WALL (    2161 calls)
     vloc_psi     :    295.73s CPU     74.64s WALL (    2161 calls)
     add_vuspsi   :      5.02s CPU      1.28s WALL (    2161 calls)

     General routines
     calbec       :      9.30s CPU      2.72s WALL (    2854 calls)
     fft          :      2.32s CPU      0.76s WALL (     265 calls)
     ffts         :      0.22s CPU      0.05s WALL (      88 calls)
     fftw         :    292.43s CPU     72.10s WALL (  210128 calls)
     interpolate  :      0.42s CPU      0.17s WALL (      44 calls)


     PWSCF        :   8m25.52s CPU   1m56.37s WALL


   This run was terminated on:  18:43:48  12May2024            

=------------------------------------------------------------------------------=
   JOB DONE.
=------------------------------------------------------------------------------=
