
     Program PWSCF v.7.2 starts on 12May2024 at 18:53:58 

     This program is part of the open-source Quantum ESPRESSO suite
     for quantum simulation of materials; please cite
         "P. Giannozzi et al., J. Phys.:Condens. Matter 21 395502 (2009);
         "P. Giannozzi et al., J. Phys.:Condens. Matter 29 465901 (2017);
         "P. Giannozzi et al., J. Chem. Phys. 152 154105 (2020);
          URL http://www.quantum-espresso.org", 
     in publications or presentations arising from this work. More details at
     http://www.quantum-espresso.org/quote

     Serial version
     0 MiB available memory on the printing compute node when the environment starts

     Waiting for input...
     Reading input from standard input

     Current dimensions of program PWSCF are:
     Max number of different atomic species (ntypx) = 10
     Max number of k-points (npk) =  40000
     Max angular momentum in pseudopotentials (lmaxx) =  4
     file Ga.rel-pbe-dn-rrkjus_psl.0.2.UPF: wavefunction(s)  4S 3D 3D renormalized


     G-vector sticks info
     --------------------
     sticks:   dense  smooth     PW     G-vecs:    dense   smooth      PW
     Sum        1711     847    253                46367    16457    2733

     Using Slab Decomposition



     bravais-lattice index     =            2
     lattice parameter (alat)  =      11.1314  a.u.
     unit-cell volume          =     344.8204 (a.u.)^3
     number of atoms/cell      =            2
     number of atomic types    =            2
     number of electrons       =        18.00
     number of Kohn-Sham states=           26
     kinetic-energy cutoff     =      50.0000  Ry
     charge density cutoff     =     400.0000  Ry
     scf convergence threshold =      1.0E-08
     mixing beta               =       0.3000
     number of iterations used =            8  plain     mixing
     Exchange-correlation= PBE
                           (   1   4   3   4   0   0   0)
     Non magnetic calculation with spin-orbit


     celldm(1)=  11.131431  celldm(2)=   0.000000  celldm(3)=   0.000000
     celldm(4)=   0.000000  celldm(5)=   0.000000  celldm(6)=   0.000000

     crystal axes: (cart. coord. in units of alat)
               a(1) = (  -0.500000   0.000000   0.500000 )  
               a(2) = (   0.000000   0.500000   0.500000 )  
               a(3) = (  -0.500000   0.500000   0.000000 )  

     reciprocal axes: (cart. coord. in units 2 pi/alat)
               b(1) = ( -1.000000 -1.000000  1.000000 )  
               b(2) = (  1.000000  1.000000  1.000000 )  
               b(3) = ( -1.000000  1.000000 -1.000000 )  


     PseudoPot. # 1 for As read from file:
     ../pseudopotential/As.rel-pbe-n-rrkjus_psl.0.2.UPF
     MD5 check sum: fd1d9cb43fef956eb1cdd0c60ce90062
     Pseudo is Ultrasoft + core correction, Zval =  5.0
     Generated using "atomic" code by A. Dal Corso  v.5.0.2 svn rev. 9415
     Using radial grid of 1209 points,  6 beta functions with: 
                l(1) =   0
                l(2) =   0
                l(3) =   1
                l(4) =   1
                l(5) =   1
                l(6) =   1
     Q(r) pseudized with 0 coefficients 


     PseudoPot. # 2 for Ga read from file:
     ../pseudopotential/Ga.rel-pbe-dn-rrkjus_psl.0.2.UPF
     MD5 check sum: b82f27152fdba9c8aaf7d704465ad383
     Pseudo is Ultrasoft + core correction, Zval = 13.0
     Generated using "atomic" code by A. Dal Corso  v.5.0.2 svn rev. 9415
     Using radial grid of 1205 points, 10 beta functions with: 
                l(1) =   0
                l(2) =   0
                l(3) =   1
                l(4) =   1
                l(5) =   1
                l(6) =   1
                l(7) =   2
                l(8) =   2
                l(9) =   2
               l(10) =   2
     Q(r) pseudized with 0 coefficients 


     atomic species   valence    mass     pseudopotential
        As             5.00    74.92160     As( 1.00)
        Ga            13.00    69.72000     Ga( 1.00)

     No symmetry found



   Cartesian axes

     site n.     atom                  positions (alat units)
         1           Ga  tau(   1) = (   0.0000000   0.0000000   0.0000000  )
         2           As  tau(   2) = (   0.2500000   0.2500000   0.2500000  )

     number of k points=    63  Gaussian smearing, width (Ry)=  0.0020
                       cart. coord. in units 2pi/alat
        k(    1) = (   0.0000000   0.0000000   0.0000000), wk =   0.0080000
        k(    2) = (  -0.2000000   0.2000000  -0.2000000), wk =   0.0160000
        k(    3) = (  -0.4000000   0.4000000  -0.4000000), wk =   0.0160000
        k(    4) = (   0.2000000   0.2000000   0.2000000), wk =   0.0160000
        k(    5) = (   0.0000000   0.4000000   0.0000000), wk =   0.0160000
        k(    6) = (  -0.2000000   0.6000000  -0.2000000), wk =   0.0160000
        k(    7) = (   0.6000000  -0.2000000   0.6000000), wk =   0.0160000
        k(    8) = (   0.4000000   0.0000000   0.4000000), wk =   0.0160000
        k(    9) = (   0.4000000   0.4000000   0.4000000), wk =   0.0160000
        k(   10) = (   0.2000000   0.6000000   0.2000000), wk =   0.0160000
        k(   11) = (   0.0000000   0.8000000   0.0000000), wk =   0.0160000
        k(   12) = (   0.8000000   0.0000000   0.8000000), wk =   0.0160000
        k(   13) = (   0.6000000   0.2000000   0.6000000), wk =   0.0160000
        k(   14) = (  -0.2000000  -0.2000000   0.2000000), wk =   0.0160000
        k(   15) = (  -0.4000000   0.0000000   0.0000000), wk =   0.0160000
        k(   16) = (  -0.6000000   0.2000000  -0.2000000), wk =   0.0160000
        k(   17) = (   0.2000000  -0.6000000   0.6000000), wk =   0.0160000
        k(   18) = (  -0.0000000  -0.4000000   0.4000000), wk =   0.0160000
        k(   19) = (   0.0000000   0.0000000   0.4000000), wk =   0.0160000
        k(   20) = (  -0.2000000   0.2000000   0.2000000), wk =   0.0160000
        k(   21) = (  -0.4000000   0.4000000   0.0000000), wk =   0.0160000
        k(   22) = (   0.4000000  -0.4000000   0.8000000), wk =   0.0160000
        k(   23) = (   0.2000000  -0.2000000   0.6000000), wk =   0.0160000
        k(   24) = (   0.2000000   0.2000000   0.6000000), wk =   0.0160000
        k(   25) = (   0.0000000   0.4000000   0.4000000), wk =   0.0160000
        k(   26) = (  -0.2000000   0.6000000   0.2000000), wk =   0.0160000
        k(   27) = (   0.6000000  -0.2000000   1.0000000), wk =   0.0160000
        k(   28) = (   0.4000000   0.0000000   0.8000000), wk =   0.0160000
        k(   29) = (  -0.6000000  -0.6000000  -0.2000000), wk =   0.0160000
        k(   30) = (  -0.8000000  -0.4000000  -0.4000000), wk =   0.0160000
        k(   31) = (  -1.0000000  -0.2000000  -0.6000000), wk =   0.0160000
        k(   32) = (  -0.2000000  -1.0000000   0.2000000), wk =   0.0160000
        k(   33) = (  -0.4000000  -0.8000000  -0.0000000), wk =   0.0160000
        k(   34) = (  -0.4000000  -0.4000000   0.0000000), wk =   0.0160000
        k(   35) = (  -0.6000000  -0.2000000  -0.2000000), wk =   0.0160000
        k(   36) = (  -0.8000000   0.0000000  -0.4000000), wk =   0.0160000
        k(   37) = (   0.0000000  -0.8000000   0.4000000), wk =   0.0160000
        k(   38) = (  -0.2000000  -0.6000000   0.2000000), wk =   0.0160000
        k(   39) = (  -0.4000000  -0.4000000   0.4000000), wk =   0.0160000
        k(   40) = (  -0.6000000  -0.2000000   0.2000000), wk =   0.0160000
        k(   41) = (  -0.8000000   0.0000000   0.0000000), wk =   0.0160000
        k(   42) = (   0.0000000  -0.8000000   0.8000000), wk =   0.0160000
        k(   43) = (  -0.2000000  -0.6000000   0.6000000), wk =   0.0160000
        k(   44) = (  -0.2000000  -0.2000000   0.6000000), wk =   0.0160000
        k(   45) = (  -0.4000000   0.0000000   0.4000000), wk =   0.0160000
        k(   46) = (  -0.6000000   0.2000000   0.2000000), wk =   0.0160000
        k(   47) = (   0.2000000  -0.6000000   1.0000000), wk =   0.0160000
        k(   48) = (  -0.0000000  -0.4000000   0.8000000), wk =   0.0160000
        k(   49) = (   0.0000000   0.0000000   0.8000000), wk =   0.0160000
        k(   50) = (  -0.2000000   0.2000000   0.6000000), wk =   0.0160000
        k(   51) = (  -0.4000000   0.4000000   0.4000000), wk =   0.0160000
        k(   52) = (   0.4000000  -0.4000000   1.2000000), wk =   0.0160000
        k(   53) = (   0.2000000  -0.2000000   1.0000000), wk =   0.0160000
        k(   54) = (  -0.8000000  -0.8000000   0.0000000), wk =   0.0160000
        k(   55) = (  -1.0000000  -0.6000000  -0.2000000), wk =   0.0160000
        k(   56) = (  -1.2000000  -0.4000000  -0.4000000), wk =   0.0160000
        k(   57) = (  -0.4000000  -1.2000000   0.4000000), wk =   0.0160000
        k(   58) = (  -0.6000000  -1.0000000   0.2000000), wk =   0.0160000
        k(   59) = (  -0.6000000  -0.6000000   0.2000000), wk =   0.0160000
        k(   60) = (  -0.8000000  -0.4000000   0.0000000), wk =   0.0160000
        k(   61) = (  -1.0000000  -0.2000000  -0.2000000), wk =   0.0160000
        k(   62) = (  -0.2000000  -1.0000000   0.6000000), wk =   0.0160000
        k(   63) = (  -0.4000000  -0.8000000   0.4000000), wk =   0.0160000

     Dense  grid:    46367 G-vectors     FFT dimensions: (  54,  54,  54)

     Smooth grid:    16457 G-vectors     FFT dimensions: (  36,  36,  36)

     Estimated max dynamical RAM per process >     638.51 MB

     Initial potential from superposition of free atoms

     starting charge      17.9971, renormalised to      18.0000
     Starting wfcs are   26 randomized atomic wfcs

     total cpu time spent up to now is        5.0 secs

     Self-consistent Calculation

     iteration #  1     ecut=    50.00 Ry     beta= 0.30
     Davidson diagonalization with overlap
     ethr =  1.00E-02,  avg # of iterations =  3.7

     Threshold (ethr) on eigenvalues was too large:
     Diagonalizing with lowered threshold

     Davidson diagonalization with overlap
     ethr =  2.49E-04,  avg # of iterations =  2.4

     total cpu time spent up to now is       27.7 secs

     total energy              =    -190.99690402 Ry
     estimated scf accuracy    <       0.04458534 Ry

     iteration #  2     ecut=    50.00 Ry     beta= 0.30
     Davidson diagonalization with overlap
     ethr =  2.48E-04,  avg # of iterations =  1.0

     total cpu time spent up to now is       37.3 secs

     total energy              =    -190.99794841 Ry
     estimated scf accuracy    <       0.01193920 Ry

     iteration #  3     ecut=    50.00 Ry     beta= 0.30
     Davidson diagonalization with overlap
     ethr =  6.63E-05,  avg # of iterations =  1.6

     total cpu time spent up to now is       47.3 secs

     total energy              =    -190.99855838 Ry
     estimated scf accuracy    <       0.00239871 Ry

     iteration #  4     ecut=    50.00 Ry     beta= 0.30
     Davidson diagonalization with overlap
     ethr =  1.33E-05,  avg # of iterations =  2.3

     total cpu time spent up to now is       57.4 secs

     total energy              =    -190.99865923 Ry
     estimated scf accuracy    <       0.00004926 Ry

     iteration #  5     ecut=    50.00 Ry     beta= 0.30
     Davidson diagonalization with overlap
     ethr =  2.74E-07,  avg # of iterations =  3.2

     total cpu time spent up to now is       69.8 secs

     total energy              =    -190.99867111 Ry
     estimated scf accuracy    <       0.00000746 Ry

     iteration #  6     ecut=    50.00 Ry     beta= 0.30
     Davidson diagonalization with overlap
     ethr =  4.14E-08,  avg # of iterations =  2.0

     total cpu time spent up to now is       81.9 secs

     total energy              =    -190.99867261 Ry
     estimated scf accuracy    <       0.00000381 Ry

     iteration #  7     ecut=    50.00 Ry     beta= 0.30
     Davidson diagonalization with overlap
     ethr =  2.12E-08,  avg # of iterations =  2.0

     total cpu time spent up to now is       93.1 secs

     total energy              =    -190.99867339 Ry
     estimated scf accuracy    <       0.00000034 Ry

     iteration #  8     ecut=    50.00 Ry     beta= 0.30
     Davidson diagonalization with overlap
     ethr =  1.89E-09,  avg # of iterations =  2.0

     total cpu time spent up to now is      105.7 secs

     total energy              =    -190.99867356 Ry
     estimated scf accuracy    <       0.00000018 Ry

     iteration #  9     ecut=    50.00 Ry     beta= 0.30
     Davidson diagonalization with overlap
     ethr =  9.99E-10,  avg # of iterations =  1.1

     total cpu time spent up to now is      115.3 secs

     total energy              =    -190.99867332 Ry
     estimated scf accuracy    <       0.00000038 Ry

     iteration # 10     ecut=    50.00 Ry     beta= 0.30
     Davidson diagonalization with overlap
     ethr =  9.99E-10,  avg # of iterations =  2.0

     total cpu time spent up to now is      126.6 secs

     End of self-consistent calculation

          k = 0.0000 0.0000 0.0000 (  2085 PWs)   bands (ev):

    -9.5006  -9.5006  -9.5006  -9.5006  -9.0640  -9.0640  -9.0289  -9.0289
    -9.0289  -9.0289  -6.5289  -6.5289   5.0270   5.0270   5.1728   5.1728
     5.4920   5.4920   5.4920   5.4920   8.9313   8.9313   9.1174   9.1174
     9.1174   9.1174

          k =-0.2000 0.2000-0.2000 (  2073 PWs)   bands (ev):

    -9.5040  -9.5040  -9.5013  -9.4977  -9.0663  -9.0663  -9.0348  -9.0348
    -9.0266  -9.0225  -6.1522  -6.1522   2.1581   2.1581   4.8623   4.8623
     5.0651   5.0679   6.5285   6.5285   9.6031   9.6031   9.7330   9.7349
    10.1038  10.1038

          k =-0.4000 0.4000-0.4000 (  2060 PWs)   bands (ev):

    -9.5102  -9.5102  -9.4989  -9.4967  -9.0698  -9.0698  -9.0419  -9.0419
    -9.0185  -9.0160  -5.3152  -5.3152  -0.2531  -0.2531   4.3817   4.3817
     4.5779   4.5794   6.1301   6.1301   9.9131   9.9131  10.0159  10.0169
    12.7622  12.7622

          k = 0.2000 0.2000 0.2000 (  2073 PWs)   bands (ev):

    -9.5040  -9.5040  -9.5013  -9.4977  -9.0663  -9.0663  -9.0348  -9.0348
    -9.0266  -9.0225  -6.1522  -6.1522   2.1581   2.1581   4.8623   4.8623
     5.0651   5.0679   6.5285   6.5285   9.6031   9.6031   9.7330   9.7349
    10.1038  10.1038

          k = 0.0000 0.4000 0.0000 (  2037 PWs)   bands (ev):

    -9.5086  -9.5086  -9.4954  -9.4954  -9.0690  -9.0690  -9.0292  -9.0292
    -9.0276  -9.0276  -6.0241  -6.0241   2.0644   2.0644   4.2356   4.2356
     4.3631   4.3631   7.5938   7.5938   8.2463   8.2463  10.8257  10.8257
    10.8510  10.8510

          k =-0.2000 0.6000-0.2000 (  2061 PWs)   bands (ev):

    -9.5224  -9.5082  -9.4939  -9.4896  -9.0865  -9.0610  -9.0355  -9.0325
    -9.0206  -9.0203  -5.3029  -5.3013   0.1986   0.2228   3.2525   3.3074
     3.8418   3.8502   7.5973   7.6317   9.1269   9.1639  10.9727  11.0092
    11.5181  11.5195

          k = 0.6000-0.2000 0.6000 (  2048 PWs)   bands (ev):

    -9.5279  -9.5080  -9.4928  -9.4871  -9.0941  -9.0519  -9.0443  -9.0340
    -9.0181  -9.0169  -4.9029  -4.9018  -0.5670  -0.5333   2.5825   2.6402
     4.0402   4.0426   7.5625   7.5995   9.9854  10.0150  11.0344  11.0348
    12.5166  12.5222

          k = 0.4000 0.0000 0.4000 (  2063 PWs)   bands (ev):

    -9.5180  -9.5070  -9.4944  -9.4923  -9.0833  -9.0568  -9.0413  -9.0332
    -9.0222  -9.0203  -5.5971  -5.5948   0.7726   0.8069   3.0993   3.1651
     4.7224   4.7241   7.6210   7.6871  10.0051  10.0531  10.1563  10.1569
    10.7584  10.7829

          k = 0.4000 0.4000 0.4000 (  2060 PWs)   bands (ev):

    -9.5102  -9.5102  -9.4989  -9.4967  -9.0698  -9.0698  -9.0419  -9.0419
    -9.0185  -9.0160  -5.3152  -5.3152  -0.2531  -0.2531   4.3817   4.3817
     4.5779   4.5794   6.1301   6.1301   9.9131   9.9131  10.0159  10.0169
    12.7622  12.7622

          k = 0.2000 0.6000 0.2000 (  2061 PWs)   bands (ev):

    -9.5224  -9.5082  -9.4939  -9.4896  -9.0865  -9.0610  -9.0355  -9.0325
    -9.0206  -9.0203  -5.3029  -5.3013   0.1986   0.2228   3.2525   3.3074
     3.8418   3.8502   7.5973   7.6317   9.1269   9.1639  10.9727  11.0092
    11.5181  11.5195

          k = 0.0000 0.8000 0.0000 (  2060 PWs)   bands (ev):

    -9.5209  -9.5209  -9.4881  -9.4881  -9.0792  -9.0792  -9.0269  -9.0269
    -9.0197  -9.0197  -4.8423  -4.8423  -0.4350  -0.4350   3.1993   3.1993
     3.2885   3.2885   6.9335   6.9335   7.5143   7.5143  13.7427  13.7427
    13.8016  13.8016

          k = 0.8000 0.0000 0.8000 (  2075 PWs)   bands (ev):

    -9.5328  -9.5122  -9.4891  -9.4835  -9.0981  -9.0615  -9.0293  -9.0279
    -9.0225  -9.0157  -4.5337  -4.5328  -0.8391  -0.8031   2.2576   2.3125
     3.3355   3.3394   7.2585   7.2672   8.9382   8.9879  13.0716  13.1030
    13.3711  13.3766

          k = 0.6000 0.2000 0.6000 (  2048 PWs)   bands (ev):

    -9.5279  -9.5080  -9.4928  -9.4871  -9.0941  -9.0519  -9.0443  -9.0340
    -9.0181  -9.0169  -4.9029  -4.9018  -0.5670  -0.5333   2.5825   2.6402
     4.0402   4.0426   7.5625   7.5995   9.9854  10.0150  11.0344  11.0348
    12.5166  12.5222

          k =-0.2000-0.2000 0.2000 (  2073 PWs)   bands (ev):

    -9.5040  -9.5040  -9.5013  -9.4977  -9.0663  -9.0663  -9.0348  -9.0348
    -9.0266  -9.0225  -6.1522  -6.1522   2.1581   2.1581   4.8623   4.8623
     5.0651   5.0679   6.5285   6.5285   9.6031   9.6031   9.7330   9.7349
    10.1038  10.1038

          k =-0.4000 0.0000 0.0000 (  2037 PWs)   bands (ev):

    -9.5086  -9.5086  -9.4954  -9.4954  -9.0690  -9.0690  -9.0292  -9.0292
    -9.0276  -9.0276  -6.0241  -6.0241   2.0644   2.0644   4.2356   4.2356
     4.3631   4.3631   7.5938   7.5938   8.2463   8.2463  10.8257  10.8257
    10.8510  10.8510

          k =-0.6000 0.2000-0.2000 (  2061 PWs)   bands (ev):

    -9.5224  -9.5082  -9.4939  -9.4896  -9.0865  -9.0610  -9.0355  -9.0325
    -9.0206  -9.0203  -5.3029  -5.3013   0.1986   0.2228   3.2525   3.3074
     3.8418   3.8502   7.5973   7.6317   9.1269   9.1639  10.9727  11.0092
    11.5181  11.5195

          k = 0.2000-0.6000 0.6000 (  2048 PWs)   bands (ev):

    -9.5279  -9.5080  -9.4928  -9.4871  -9.0941  -9.0519  -9.0443  -9.0340
    -9.0181  -9.0169  -4.9029  -4.9018  -0.5670  -0.5333   2.5825   2.6402
     4.0402   4.0426   7.5625   7.5995   9.9854  10.0150  11.0344  11.0348
    12.5166  12.5222

          k =-0.0000-0.4000 0.4000 (  2063 PWs)   bands (ev):

    -9.5180  -9.5070  -9.4944  -9.4923  -9.0833  -9.0568  -9.0413  -9.0332
    -9.0222  -9.0203  -5.5971  -5.5948   0.7726   0.8069   3.0993   3.1651
     4.7224   4.7241   7.6210   7.6871  10.0051  10.0531  10.1563  10.1569
    10.7584  10.7829

          k = 0.0000 0.0000 0.4000 (  2037 PWs)   bands (ev):

    -9.5086  -9.5086  -9.4954  -9.4954  -9.0690  -9.0690  -9.0292  -9.0292
    -9.0276  -9.0276  -6.0241  -6.0241   2.0644   2.0644   4.2356   4.2356
     4.3631   4.3631   7.5938   7.5938   8.2463   8.2463  10.8257  10.8257
    10.8510  10.8510

          k =-0.2000 0.2000 0.2000 (  2073 PWs)   bands (ev):

    -9.5040  -9.5040  -9.5013  -9.4977  -9.0663  -9.0663  -9.0348  -9.0348
    -9.0266  -9.0225  -6.1522  -6.1522   2.1581   2.1581   4.8623   4.8623
     5.0651   5.0679   6.5285   6.5285   9.6031   9.6031   9.7330   9.7349
    10.1038  10.1038

          k =-0.4000 0.4000 0.0000 (  2063 PWs)   bands (ev):

    -9.5180  -9.5070  -9.4944  -9.4923  -9.0833  -9.0568  -9.0413  -9.0332
    -9.0222  -9.0203  -5.5971  -5.5948   0.7726   0.8069   3.0993   3.1651
     4.7224   4.7241   7.6210   7.6871  10.0051  10.0531  10.1563  10.1569
    10.7584  10.7829

          k = 0.4000-0.4000 0.8000 (  2048 PWs)   bands (ev):

    -9.5279  -9.5080  -9.4928  -9.4871  -9.0941  -9.0519  -9.0443  -9.0340
    -9.0181  -9.0169  -4.9029  -4.9018  -0.5670  -0.5333   2.5825   2.6402
     4.0402   4.0426   7.5625   7.5995   9.9854  10.0150  11.0344  11.0348
    12.5166  12.5222

          k = 0.2000-0.2000 0.6000 (  2061 PWs)   bands (ev):

    -9.5224  -9.5082  -9.4939  -9.4896  -9.0865  -9.0610  -9.0355  -9.0325
    -9.0206  -9.0203  -5.3029  -5.3013   0.1986   0.2228   3.2525   3.3074
     3.8418   3.8502   7.5973   7.6317   9.1269   9.1639  10.9727  11.0092
    11.5181  11.5195

          k = 0.2000 0.2000 0.6000 (  2061 PWs)   bands (ev):

    -9.5224  -9.5082  -9.4939  -9.4896  -9.0865  -9.0610  -9.0355  -9.0325
    -9.0206  -9.0203  -5.3029  -5.3013   0.1986   0.2228   3.2525   3.3074
     3.8418   3.8502   7.5973   7.6317   9.1269   9.1639  10.9727  11.0092
    11.5181  11.5195

          k = 0.0000 0.4000 0.4000 (  2063 PWs)   bands (ev):

    -9.5180  -9.5070  -9.4944  -9.4923  -9.0833  -9.0568  -9.0413  -9.0332
    -9.0222  -9.0203  -5.5971  -5.5948   0.7726   0.8069   3.0993   3.1651
     4.7224   4.7241   7.6210   7.6871  10.0051  10.0531  10.1563  10.1569
    10.7584  10.7829

          k =-0.2000 0.6000 0.2000 (  2061 PWs)   bands (ev):

    -9.5224  -9.5082  -9.4939  -9.4896  -9.0865  -9.0610  -9.0355  -9.0325
    -9.0206  -9.0203  -5.3029  -5.3013   0.1986   0.2228   3.2525   3.3074
     3.8418   3.8502   7.5973   7.6317   9.1269   9.1639  10.9727  11.0092
    11.5181  11.5195

          k = 0.6000-0.2000 1.0000 (  2065 PWs)   bands (ev):

    -9.5334  -9.5088  -9.4894  -9.4842  -9.1012  -9.0521  -9.0373  -9.0297
    -9.0200  -9.0176  -4.6972  -4.6971  -0.5850  -0.5409   2.2915   2.3669
     3.1219   3.1639   8.8113   8.9541   9.3496   9.3960  10.3984  10.4574
    12.9677  12.9895

          k = 0.4000 0.0000 0.8000 (  2065 PWs)   bands (ev):

    -9.5334  -9.5088  -9.4894  -9.4842  -9.1012  -9.0521  -9.0373  -9.0297
    -9.0200  -9.0176  -4.6972  -4.6971  -0.5850  -0.5409   2.2915   2.3669
     3.1219   3.1639   8.8113   8.9541   9.3496   9.3960  10.3984  10.4574
    12.9677  12.9895

          k =-0.6000-0.6000-0.2000 (  2048 PWs)   bands (ev):

    -9.5279  -9.5080  -9.4928  -9.4871  -9.0941  -9.0519  -9.0443  -9.0340
    -9.0181  -9.0169  -4.9029  -4.9018  -0.5670  -0.5333   2.5825   2.6402
     4.0402   4.0426   7.5625   7.5995   9.9854  10.0150  11.0344  11.0348
    12.5166  12.5222

          k =-0.8000-0.4000-0.4000 (  2048 PWs)   bands (ev):

    -9.5279  -9.5080  -9.4928  -9.4871  -9.0941  -9.0519  -9.0443  -9.0340
    -9.0181  -9.0169  -4.9029  -4.9018  -0.5670  -0.5333   2.5825   2.6402
     4.0402   4.0426   7.5625   7.5995   9.9854  10.0150  11.0344  11.0348
    12.5166  12.5222

          k =-1.0000-0.2000-0.6000 (  2065 PWs)   bands (ev):

    -9.5334  -9.5088  -9.4894  -9.4842  -9.1012  -9.0521  -9.0373  -9.0297
    -9.0200  -9.0176  -4.6972  -4.6971  -0.5850  -0.5409   2.2915   2.3669
     3.1219   3.1639   8.8113   8.9541   9.3496   9.3960  10.3984  10.4574
    12.9677  12.9895

          k =-0.2000-1.0000 0.2000 (  2075 PWs)   bands (ev):

    -9.5328  -9.5122  -9.4891  -9.4835  -9.0981  -9.0615  -9.0293  -9.0279
    -9.0225  -9.0157  -4.5337  -4.5328  -0.8391  -0.8031   2.2576   2.3125
     3.3355   3.3394   7.2585   7.2672   8.9382   8.9879  13.0716  13.1030
    13.3711  13.3766

          k =-0.4000-0.8000-0.0000 (  2065 PWs)   bands (ev):

    -9.5334  -9.5088  -9.4894  -9.4842  -9.1012  -9.0521  -9.0373  -9.0297
    -9.0200  -9.0176  -4.6972  -4.6971  -0.5850  -0.5409   2.2915   2.3669
     3.1219   3.1639   8.8113   8.9541   9.3496   9.3960  10.3984  10.4574
    12.9677  12.9895

          k =-0.4000-0.4000 0.0000 (  2063 PWs)   bands (ev):

    -9.5180  -9.5070  -9.4944  -9.4923  -9.0833  -9.0568  -9.0413  -9.0332
    -9.0222  -9.0203  -5.5971  -5.5948   0.7726   0.8069   3.0993   3.1651
     4.7224   4.7241   7.6210   7.6871  10.0051  10.0531  10.1563  10.1569
    10.7584  10.7829

          k =-0.6000-0.2000-0.2000 (  2061 PWs)   bands (ev):

    -9.5224  -9.5082  -9.4939  -9.4896  -9.0865  -9.0610  -9.0355  -9.0325
    -9.0206  -9.0203  -5.3029  -5.3013   0.1986   0.2228   3.2525   3.3074
     3.8418   3.8502   7.5973   7.6317   9.1269   9.1639  10.9727  11.0092
    11.5181  11.5195

          k =-0.8000 0.0000-0.4000 (  2065 PWs)   bands (ev):

    -9.5334  -9.5088  -9.4894  -9.4842  -9.1012  -9.0521  -9.0373  -9.0297
    -9.0200  -9.0176  -4.6972  -4.6971  -0.5850  -0.5409   2.2915   2.3669
     3.1219   3.1639   8.8113   8.9541   9.3496   9.3960  10.3984  10.4574
    12.9677  12.9895

          k = 0.0000-0.8000 0.4000 (  2065 PWs)   bands (ev):

    -9.5334  -9.5088  -9.4894  -9.4842  -9.1012  -9.0521  -9.0373  -9.0297
    -9.0200  -9.0176  -4.6972  -4.6971  -0.5850  -0.5409   2.2915   2.3669
     3.1219   3.1639   8.8113   8.9541   9.3496   9.3960  10.3984  10.4574
    12.9677  12.9895

          k =-0.2000-0.6000 0.2000 (  2061 PWs)   bands (ev):

    -9.5224  -9.5082  -9.4939  -9.4896  -9.0865  -9.0610  -9.0355  -9.0325
    -9.0206  -9.0203  -5.3029  -5.3013   0.1986   0.2228   3.2525   3.3074
     3.8418   3.8502   7.5973   7.6317   9.1269   9.1639  10.9727  11.0092
    11.5181  11.5195

          k =-0.4000-0.4000 0.4000 (  2060 PWs)   bands (ev):

    -9.5102  -9.5102  -9.4989  -9.4967  -9.0698  -9.0698  -9.0419  -9.0419
    -9.0185  -9.0160  -5.3152  -5.3152  -0.2531  -0.2531   4.3817   4.3817
     4.5779   4.5794   6.1301   6.1301   9.9131   9.9131  10.0159  10.0169
    12.7622  12.7622

          k =-0.6000-0.2000 0.2000 (  2061 PWs)   bands (ev):

    -9.5224  -9.5082  -9.4939  -9.4896  -9.0865  -9.0610  -9.0355  -9.0325
    -9.0206  -9.0203  -5.3029  -5.3013   0.1986   0.2228   3.2525   3.3074
     3.8418   3.8502   7.5973   7.6317   9.1269   9.1639  10.9727  11.0092
    11.5181  11.5195

          k =-0.8000 0.0000 0.0000 (  2060 PWs)   bands (ev):

    -9.5209  -9.5209  -9.4881  -9.4881  -9.0792  -9.0792  -9.0269  -9.0269
    -9.0197  -9.0197  -4.8423  -4.8423  -0.4350  -0.4350   3.1993   3.1993
     3.2885   3.2885   6.9335   6.9335   7.5143   7.5143  13.7427  13.7427
    13.8016  13.8016

          k = 0.0000-0.8000 0.8000 (  2075 PWs)   bands (ev):

    -9.5328  -9.5122  -9.4891  -9.4835  -9.0981  -9.0615  -9.0293  -9.0279
    -9.0225  -9.0157  -4.5337  -4.5328  -0.8391  -0.8031   2.2576   2.3125
     3.3355   3.3394   7.2585   7.2672   8.9382   8.9879  13.0716  13.1030
    13.3711  13.3766

          k =-0.2000-0.6000 0.6000 (  2048 PWs)   bands (ev):

    -9.5279  -9.5080  -9.4928  -9.4871  -9.0941  -9.0519  -9.0443  -9.0340
    -9.0181  -9.0169  -4.9029  -4.9018  -0.5670  -0.5333   2.5825   2.6402
     4.0402   4.0426   7.5625   7.5995   9.9854  10.0150  11.0344  11.0348
    12.5166  12.5222

          k =-0.2000-0.2000 0.6000 (  2061 PWs)   bands (ev):

    -9.5224  -9.5082  -9.4939  -9.4896  -9.0865  -9.0610  -9.0355  -9.0325
    -9.0206  -9.0203  -5.3029  -5.3013   0.1986   0.2228   3.2525   3.3074
     3.8418   3.8502   7.5973   7.6317   9.1269   9.1639  10.9727  11.0092
    11.5181  11.5195

          k =-0.4000 0.0000 0.4000 (  2063 PWs)   bands (ev):

    -9.5180  -9.5070  -9.4944  -9.4923  -9.0833  -9.0568  -9.0413  -9.0332
    -9.0222  -9.0203  -5.5971  -5.5948   0.7726   0.8069   3.0993   3.1651
     4.7224   4.7241   7.6210   7.6871  10.0051  10.0531  10.1563  10.1569
    10.7584  10.7829

          k =-0.6000 0.2000 0.2000 (  2061 PWs)   bands (ev):

    -9.5224  -9.5082  -9.4939  -9.4896  -9.0865  -9.0610  -9.0355  -9.0325
    -9.0206  -9.0203  -5.3029  -5.3013   0.1986   0.2228   3.2525   3.3074
     3.8418   3.8502   7.5973   7.6317   9.1269   9.1639  10.9727  11.0092
    11.5181  11.5195

          k = 0.2000-0.6000 1.0000 (  2065 PWs)   bands (ev):

    -9.5334  -9.5088  -9.4894  -9.4842  -9.1012  -9.0521  -9.0373  -9.0297
    -9.0200  -9.0176  -4.6972  -4.6971  -0.5850  -0.5409   2.2915   2.3669
     3.1219   3.1639   8.8113   8.9541   9.3496   9.3960  10.3984  10.4574
    12.9677  12.9895

          k =-0.0000-0.4000 0.8000 (  2065 PWs)   bands (ev):

    -9.5334  -9.5088  -9.4894  -9.4842  -9.1012  -9.0521  -9.0373  -9.0297
    -9.0200  -9.0176  -4.6972  -4.6971  -0.5850  -0.5409   2.2915   2.3669
     3.1219   3.1639   8.8113   8.9541   9.3496   9.3960  10.3984  10.4574
    12.9677  12.9895

          k = 0.0000 0.0000 0.8000 (  2060 PWs)   bands (ev):

    -9.5209  -9.5209  -9.4881  -9.4881  -9.0792  -9.0792  -9.0269  -9.0269
    -9.0197  -9.0197  -4.8423  -4.8423  -0.4350  -0.4350   3.1993   3.1993
     3.2885   3.2885   6.9335   6.9335   7.5143   7.5143  13.7427  13.7427
    13.8016  13.8016

          k =-0.2000 0.2000 0.6000 (  2061 PWs)   bands (ev):

    -9.5224  -9.5082  -9.4939  -9.4896  -9.0865  -9.0610  -9.0355  -9.0325
    -9.0206  -9.0203  -5.3029  -5.3013   0.1986   0.2228   3.2525   3.3074
     3.8418   3.8502   7.5973   7.6317   9.1269   9.1639  10.9727  11.0092
    11.5181  11.5195

          k =-0.4000 0.4000 0.4000 (  2060 PWs)   bands (ev):

    -9.5102  -9.5102  -9.4989  -9.4967  -9.0698  -9.0698  -9.0419  -9.0419
    -9.0185  -9.0160  -5.3152  -5.3152  -0.2531  -0.2531   4.3817   4.3817
     4.5779   4.5794   6.1301   6.1301   9.9131   9.9131  10.0159  10.0169
    12.7622  12.7622

          k = 0.4000-0.4000 1.2000 (  2048 PWs)   bands (ev):

    -9.5279  -9.5080  -9.4928  -9.4871  -9.0941  -9.0519  -9.0443  -9.0340
    -9.0181  -9.0169  -4.9029  -4.9018  -0.5670  -0.5333   2.5825   2.6402
     4.0402   4.0426   7.5625   7.5995   9.9854  10.0150  11.0344  11.0348
    12.5166  12.5222

          k = 0.2000-0.2000 1.0000 (  2075 PWs)   bands (ev):

    -9.5328  -9.5122  -9.4891  -9.4835  -9.0981  -9.0615  -9.0293  -9.0279
    -9.0225  -9.0157  -4.5337  -4.5328  -0.8391  -0.8031   2.2576   2.3125
     3.3355   3.3394   7.2585   7.2672   8.9382   8.9879  13.0716  13.1030
    13.3711  13.3766

          k =-0.8000-0.8000 0.0000 (  2075 PWs)   bands (ev):

    -9.5328  -9.5122  -9.4891  -9.4835  -9.0981  -9.0615  -9.0293  -9.0279
    -9.0225  -9.0157  -4.5337  -4.5328  -0.8391  -0.8031   2.2576   2.3125
     3.3355   3.3394   7.2585   7.2672   8.9382   8.9879  13.0716  13.1030
    13.3711  13.3766

          k =-1.0000-0.6000-0.2000 (  2065 PWs)   bands (ev):

    -9.5334  -9.5088  -9.4894  -9.4842  -9.1012  -9.0521  -9.0373  -9.0297
    -9.0200  -9.0176  -4.6972  -4.6971  -0.5850  -0.5409   2.2915   2.3669
     3.1219   3.1639   8.8113   8.9541   9.3496   9.3960  10.3984  10.4574
    12.9677  12.9895

          k =-1.2000-0.4000-0.4000 (  2048 PWs)   bands (ev):

    -9.5279  -9.5080  -9.4928  -9.4871  -9.0941  -9.0519  -9.0443  -9.0340
    -9.0181  -9.0169  -4.9029  -4.9018  -0.5670  -0.5333   2.5825   2.6402
     4.0402   4.0426   7.5625   7.5995   9.9854  10.0150  11.0344  11.0348
    12.5166  12.5222

          k =-0.4000-1.2000 0.4000 (  2048 PWs)   bands (ev):

    -9.5279  -9.5080  -9.4928  -9.4871  -9.0941  -9.0519  -9.0443  -9.0340
    -9.0181  -9.0169  -4.9029  -4.9018  -0.5670  -0.5333   2.5825   2.6402
     4.0402   4.0426   7.5625   7.5995   9.9854  10.0150  11.0344  11.0348
    12.5166  12.5222

          k =-0.6000-1.0000 0.2000 (  2065 PWs)   bands (ev):

    -9.5334  -9.5088  -9.4894  -9.4842  -9.1012  -9.0521  -9.0373  -9.0297
    -9.0200  -9.0176  -4.6972  -4.6971  -0.5850  -0.5409   2.2915   2.3669
     3.1219   3.1639   8.8113   8.9541   9.3496   9.3960  10.3984  10.4574
    12.9677  12.9895

          k =-0.6000-0.6000 0.2000 (  2048 PWs)   bands (ev):

    -9.5279  -9.5080  -9.4928  -9.4871  -9.0941  -9.0519  -9.0443  -9.0340
    -9.0181  -9.0169  -4.9029  -4.9018  -0.5670  -0.5333   2.5825   2.6402
     4.0402   4.0426   7.5625   7.5995   9.9854  10.0150  11.0344  11.0348
    12.5166  12.5222

          k =-0.8000-0.4000 0.0000 (  2065 PWs)   bands (ev):

    -9.5334  -9.5088  -9.4894  -9.4842  -9.1012  -9.0521  -9.0373  -9.0297
    -9.0200  -9.0176  -4.6972  -4.6971  -0.5850  -0.5409   2.2915   2.3669
     3.1219   3.1639   8.8113   8.9541   9.3496   9.3960  10.3984  10.4574
    12.9677  12.9895

          k =-1.0000-0.2000-0.2000 (  2075 PWs)   bands (ev):

    -9.5328  -9.5122  -9.4891  -9.4835  -9.0981  -9.0615  -9.0293  -9.0279
    -9.0225  -9.0157  -4.5337  -4.5328  -0.8391  -0.8031   2.2576   2.3125
     3.3355   3.3394   7.2585   7.2672   8.9382   8.9879  13.0716  13.1030
    13.3711  13.3766

          k =-0.2000-1.0000 0.6000 (  2065 PWs)   bands (ev):

    -9.5334  -9.5088  -9.4894  -9.4842  -9.1012  -9.0521  -9.0373  -9.0297
    -9.0200  -9.0176  -4.6972  -4.6971  -0.5850  -0.5409   2.2915   2.3669
     3.1219   3.1639   8.8113   8.9541   9.3496   9.3960  10.3984  10.4574
    12.9677  12.9895

          k =-0.4000-0.8000 0.4000 (  2048 PWs)   bands (ev):

    -9.5279  -9.5080  -9.4928  -9.4871  -9.0941  -9.0519  -9.0443  -9.0340
    -9.0181  -9.0169  -4.9029  -4.9018  -0.5670  -0.5333   2.5825   2.6402
     4.0402   4.0426   7.5625   7.5995   9.9854  10.0150  11.0344  11.0348
    12.5166  12.5222

     the Fermi energy is     5.4920 ev

!    total energy              =    -190.99867341 Ry
     estimated scf accuracy    <          7.4E-10 Ry
     smearing contrib. (-TS)   =      -0.00001805 Ry
     internal energy E=F+TS    =    -190.99865536 Ry

     The total energy is F=E-TS. E is the sum of the following terms:
     one-electron contribution =    -117.81708077 Ry
     hartree contribution      =      73.88447657 Ry
     xc contribution           =     -57.79496604 Ry
     ewald contribution        =     -89.27108511 Ry

     convergence has been achieved in  10 iterations

     Writing all to output data dir ./GaAs.save/

     init_run     :     16.58s CPU      4.68s WALL (       1 calls)
     electrons    :    534.90s CPU    121.62s WALL (       1 calls)

     Called by init_run:
     wfcinit      :     14.92s CPU      3.79s WALL (       1 calls)
     potinit      :      0.05s CPU      0.05s WALL (       1 calls)
     hinit0       :      0.61s CPU      0.61s WALL (       1 calls)

     Called by electrons:
     c_bands      :    430.76s CPU     98.19s WALL (      11 calls)
     sum_band     :     93.67s CPU     20.65s WALL (      11 calls)
     v_of_rho     :      1.70s CPU      0.57s WALL (      11 calls)
     newd         :      8.50s CPU      2.10s WALL (      11 calls)
     mix_rho      :      0.84s CPU      0.22s WALL (      11 calls)

     Called by c_bands:
     init_us_2    :      6.32s CPU      0.92s WALL (    1449 calls)
     init_us_2:cp :      6.31s CPU      0.91s WALL (    1449 calls)
     cegterg      :    393.20s CPU     92.45s WALL (     693 calls)

     Called by *egterg:
     cdiaghg      :      9.93s CPU      1.31s WALL (    2094 calls)
     h_psi        :    330.56s CPU     84.51s WALL (    2220 calls)
     s_psi        :      7.04s CPU      1.48s WALL (    2220 calls)
     g_psi        :      1.84s CPU      0.33s WALL (    1464 calls)

     Called by h_psi:
     h_psi:calbec :      8.35s CPU      2.37s WALL (    2220 calls)
     vloc_psi     :    314.92s CPU     80.34s WALL (    2220 calls)
     add_vuspsi   :      5.45s CPU      1.45s WALL (    2220 calls)

     General routines
     calbec       :     10.81s CPU      3.08s WALL (    2913 calls)
     fft          :      1.77s CPU      0.54s WALL (     265 calls)
     ffts         :      0.22s CPU      0.05s WALL (      88 calls)
     fftw         :    299.32s CPU     73.90s WALL (  211812 calls)
     interpolate  :      0.36s CPU      0.12s WALL (      44 calls)


     PWSCF        :   9m12.98s CPU   2m 6.76s WALL


   This run was terminated on:  18:56: 5  12May2024            

=------------------------------------------------------------------------------=
   JOB DONE.
=------------------------------------------------------------------------------=
