
     Program PWSCF v.7.2 starts on 12May2024 at 18:34:20 

     This program is part of the open-source Quantum ESPRESSO suite
     for quantum simulation of materials; please cite
         "P. Giannozzi et al., J. Phys.:Condens. Matter 21 395502 (2009);
         "P. Giannozzi et al., J. Phys.:Condens. Matter 29 465901 (2017);
         "P. Giannozzi et al., J. Chem. Phys. 152 154105 (2020);
          URL http://www.quantum-espresso.org", 
     in publications or presentations arising from this work. More details at
     http://www.quantum-espresso.org/quote

     Serial version
     0 MiB available memory on the printing compute node when the environment starts

     Waiting for input...
     Reading input from standard input

     Current dimensions of program PWSCF are:
     Max number of different atomic species (ntypx) = 10
     Max number of k-points (npk) =  40000
     Max angular momentum in pseudopotentials (lmaxx) =  4
     file Ga.rel-pbe-dn-rrkjus_psl.0.2.UPF: wavefunction(s)  4S 3D 3D renormalized


     G-vector sticks info
     --------------------
     sticks:   dense  smooth     PW     G-vecs:    dense   smooth      PW
     Sum        1393     691    211                34429    12051    2109

     Using Slab Decomposition



     bravais-lattice index     =            2
     lattice parameter (alat)  =      10.0713  a.u.
     unit-cell volume          =     255.3853 (a.u.)^3
     number of atoms/cell      =            2
     number of atomic types    =            2
     number of electrons       =        18.00
     number of Kohn-Sham states=           26
     kinetic-energy cutoff     =      50.0000  Ry
     charge density cutoff     =     400.0000  Ry
     scf convergence threshold =      1.0E-08
     mixing beta               =       0.3000
     number of iterations used =            8  plain     mixing
     Exchange-correlation= PBE
                           (   1   4   3   4   0   0   0)
     Non magnetic calculation with spin-orbit


     celldm(1)=  10.071295  celldm(2)=   0.000000  celldm(3)=   0.000000
     celldm(4)=   0.000000  celldm(5)=   0.000000  celldm(6)=   0.000000

     crystal axes: (cart. coord. in units of alat)
               a(1) = (  -0.500000   0.000000   0.500000 )  
               a(2) = (   0.000000   0.500000   0.500000 )  
               a(3) = (  -0.500000   0.500000   0.000000 )  

     reciprocal axes: (cart. coord. in units 2 pi/alat)
               b(1) = ( -1.000000 -1.000000  1.000000 )  
               b(2) = (  1.000000  1.000000  1.000000 )  
               b(3) = ( -1.000000  1.000000 -1.000000 )  


     PseudoPot. # 1 for As read from file:
     ../pseudopotential/As.rel-pbe-n-rrkjus_psl.0.2.UPF
     MD5 check sum: fd1d9cb43fef956eb1cdd0c60ce90062
     Pseudo is Ultrasoft + core correction, Zval =  5.0
     Generated using "atomic" code by A. Dal Corso  v.5.0.2 svn rev. 9415
     Using radial grid of 1209 points,  6 beta functions with: 
                l(1) =   0
                l(2) =   0
                l(3) =   1
                l(4) =   1
                l(5) =   1
                l(6) =   1
     Q(r) pseudized with 0 coefficients 


     PseudoPot. # 2 for Ga read from file:
     ../pseudopotential/Ga.rel-pbe-dn-rrkjus_psl.0.2.UPF
     MD5 check sum: b82f27152fdba9c8aaf7d704465ad383
     Pseudo is Ultrasoft + core correction, Zval = 13.0
     Generated using "atomic" code by A. Dal Corso  v.5.0.2 svn rev. 9415
     Using radial grid of 1205 points, 10 beta functions with: 
                l(1) =   0
                l(2) =   0
                l(3) =   1
                l(4) =   1
                l(5) =   1
                l(6) =   1
                l(7) =   2
                l(8) =   2
                l(9) =   2
               l(10) =   2
     Q(r) pseudized with 0 coefficients 


     atomic species   valence    mass     pseudopotential
        As             5.00    74.92160     As( 1.00)
        Ga            13.00    69.72000     Ga( 1.00)

     No symmetry found



   Cartesian axes

     site n.     atom                  positions (alat units)
         1           Ga  tau(   1) = (   0.0000000   0.0000000   0.0000000  )
         2           As  tau(   2) = (   0.2500000   0.2500000   0.2500000  )

     number of k points=    63  Gaussian smearing, width (Ry)=  0.0020
                       cart. coord. in units 2pi/alat
        k(    1) = (   0.0000000   0.0000000   0.0000000), wk =   0.0080000
        k(    2) = (  -0.2000000   0.2000000  -0.2000000), wk =   0.0160000
        k(    3) = (  -0.4000000   0.4000000  -0.4000000), wk =   0.0160000
        k(    4) = (   0.2000000   0.2000000   0.2000000), wk =   0.0160000
        k(    5) = (   0.0000000   0.4000000   0.0000000), wk =   0.0160000
        k(    6) = (  -0.2000000   0.6000000  -0.2000000), wk =   0.0160000
        k(    7) = (   0.6000000  -0.2000000   0.6000000), wk =   0.0160000
        k(    8) = (   0.4000000   0.0000000   0.4000000), wk =   0.0160000
        k(    9) = (   0.4000000   0.4000000   0.4000000), wk =   0.0160000
        k(   10) = (   0.2000000   0.6000000   0.2000000), wk =   0.0160000
        k(   11) = (   0.0000000   0.8000000   0.0000000), wk =   0.0160000
        k(   12) = (   0.8000000   0.0000000   0.8000000), wk =   0.0160000
        k(   13) = (   0.6000000   0.2000000   0.6000000), wk =   0.0160000
        k(   14) = (  -0.2000000  -0.2000000   0.2000000), wk =   0.0160000
        k(   15) = (  -0.4000000   0.0000000   0.0000000), wk =   0.0160000
        k(   16) = (  -0.6000000   0.2000000  -0.2000000), wk =   0.0160000
        k(   17) = (   0.2000000  -0.6000000   0.6000000), wk =   0.0160000
        k(   18) = (  -0.0000000  -0.4000000   0.4000000), wk =   0.0160000
        k(   19) = (   0.0000000   0.0000000   0.4000000), wk =   0.0160000
        k(   20) = (  -0.2000000   0.2000000   0.2000000), wk =   0.0160000
        k(   21) = (  -0.4000000   0.4000000   0.0000000), wk =   0.0160000
        k(   22) = (   0.4000000  -0.4000000   0.8000000), wk =   0.0160000
        k(   23) = (   0.2000000  -0.2000000   0.6000000), wk =   0.0160000
        k(   24) = (   0.2000000   0.2000000   0.6000000), wk =   0.0160000
        k(   25) = (   0.0000000   0.4000000   0.4000000), wk =   0.0160000
        k(   26) = (  -0.2000000   0.6000000   0.2000000), wk =   0.0160000
        k(   27) = (   0.6000000  -0.2000000   1.0000000), wk =   0.0160000
        k(   28) = (   0.4000000   0.0000000   0.8000000), wk =   0.0160000
        k(   29) = (  -0.6000000  -0.6000000  -0.2000000), wk =   0.0160000
        k(   30) = (  -0.8000000  -0.4000000  -0.4000000), wk =   0.0160000
        k(   31) = (  -1.0000000  -0.2000000  -0.6000000), wk =   0.0160000
        k(   32) = (  -0.2000000  -1.0000000   0.2000000), wk =   0.0160000
        k(   33) = (  -0.4000000  -0.8000000  -0.0000000), wk =   0.0160000
        k(   34) = (  -0.4000000  -0.4000000   0.0000000), wk =   0.0160000
        k(   35) = (  -0.6000000  -0.2000000  -0.2000000), wk =   0.0160000
        k(   36) = (  -0.8000000   0.0000000  -0.4000000), wk =   0.0160000
        k(   37) = (   0.0000000  -0.8000000   0.4000000), wk =   0.0160000
        k(   38) = (  -0.2000000  -0.6000000   0.2000000), wk =   0.0160000
        k(   39) = (  -0.4000000  -0.4000000   0.4000000), wk =   0.0160000
        k(   40) = (  -0.6000000  -0.2000000   0.2000000), wk =   0.0160000
        k(   41) = (  -0.8000000   0.0000000   0.0000000), wk =   0.0160000
        k(   42) = (   0.0000000  -0.8000000   0.8000000), wk =   0.0160000
        k(   43) = (  -0.2000000  -0.6000000   0.6000000), wk =   0.0160000
        k(   44) = (  -0.2000000  -0.2000000   0.6000000), wk =   0.0160000
        k(   45) = (  -0.4000000   0.0000000   0.4000000), wk =   0.0160000
        k(   46) = (  -0.6000000   0.2000000   0.2000000), wk =   0.0160000
        k(   47) = (   0.2000000  -0.6000000   1.0000000), wk =   0.0160000
        k(   48) = (  -0.0000000  -0.4000000   0.8000000), wk =   0.0160000
        k(   49) = (   0.0000000   0.0000000   0.8000000), wk =   0.0160000
        k(   50) = (  -0.2000000   0.2000000   0.6000000), wk =   0.0160000
        k(   51) = (  -0.4000000   0.4000000   0.4000000), wk =   0.0160000
        k(   52) = (   0.4000000  -0.4000000   1.2000000), wk =   0.0160000
        k(   53) = (   0.2000000  -0.2000000   1.0000000), wk =   0.0160000
        k(   54) = (  -0.8000000  -0.8000000   0.0000000), wk =   0.0160000
        k(   55) = (  -1.0000000  -0.6000000  -0.2000000), wk =   0.0160000
        k(   56) = (  -1.2000000  -0.4000000  -0.4000000), wk =   0.0160000
        k(   57) = (  -0.4000000  -1.2000000   0.4000000), wk =   0.0160000
        k(   58) = (  -0.6000000  -1.0000000   0.2000000), wk =   0.0160000
        k(   59) = (  -0.6000000  -0.6000000   0.2000000), wk =   0.0160000
        k(   60) = (  -0.8000000  -0.4000000   0.0000000), wk =   0.0160000
        k(   61) = (  -1.0000000  -0.2000000  -0.2000000), wk =   0.0160000
        k(   62) = (  -0.2000000  -1.0000000   0.6000000), wk =   0.0160000
        k(   63) = (  -0.4000000  -0.8000000   0.4000000), wk =   0.0160000

     Dense  grid:    34429 G-vectors     FFT dimensions: (  45,  45,  45)

     Smooth grid:    12051 G-vectors     FFT dimensions: (  36,  36,  36)

     Estimated max dynamical RAM per process >     471.35 MB

     Initial potential from superposition of free atoms

     starting charge      17.9971, renormalised to      18.0000
     Starting wfcs are   26 randomized atomic wfcs

     total cpu time spent up to now is        4.8 secs

     Self-consistent Calculation

     iteration #  1     ecut=    50.00 Ry     beta= 0.30
     Davidson diagonalization with overlap
     ethr =  1.00E-02,  avg # of iterations =  4.1

     Threshold (ethr) on eigenvalues was too large:
     Diagonalizing with lowered threshold

     Davidson diagonalization with overlap
     ethr =  3.10E-04,  avg # of iterations =  2.3

     total cpu time spent up to now is       25.8 secs

     total energy              =    -190.95818322 Ry
     estimated scf accuracy    <       0.05545809 Ry

     iteration #  2     ecut=    50.00 Ry     beta= 0.30
     Davidson diagonalization with overlap
     ethr =  3.08E-04,  avg # of iterations =  1.2

     total cpu time spent up to now is       34.0 secs

     total energy              =    -190.95673506 Ry
     estimated scf accuracy    <       0.01696875 Ry

     iteration #  3     ecut=    50.00 Ry     beta= 0.30
     Davidson diagonalization with overlap
     ethr =  9.43E-05,  avg # of iterations =  2.1

     total cpu time spent up to now is       42.6 secs

     total energy              =    -190.95784003 Ry
     estimated scf accuracy    <       0.00217142 Ry

     iteration #  4     ecut=    50.00 Ry     beta= 0.30
     Davidson diagonalization with overlap
     ethr =  1.21E-05,  avg # of iterations =  2.2

     total cpu time spent up to now is       51.1 secs

     total energy              =    -190.95798205 Ry
     estimated scf accuracy    <       0.00007895 Ry

     iteration #  5     ecut=    50.00 Ry     beta= 0.30
     Davidson diagonalization with overlap
     ethr =  4.39E-07,  avg # of iterations =  2.8

     total cpu time spent up to now is       61.9 secs

     total energy              =    -190.95801100 Ry
     estimated scf accuracy    <       0.00006186 Ry

     iteration #  6     ecut=    50.00 Ry     beta= 0.30
     Davidson diagonalization with overlap
     ethr =  3.44E-07,  avg # of iterations =  1.0

     total cpu time spent up to now is       71.0 secs

     total energy              =    -190.95800683 Ry
     estimated scf accuracy    <       0.00001164 Ry

     iteration #  7     ecut=    50.00 Ry     beta= 0.30
     Davidson diagonalization with overlap
     ethr =  6.47E-08,  avg # of iterations =  2.0

     total cpu time spent up to now is       81.6 secs

     total energy              =    -190.95801132 Ry
     estimated scf accuracy    <       0.00000174 Ry

     iteration #  8     ecut=    50.00 Ry     beta= 0.30
     Davidson diagonalization with overlap
     ethr =  9.68E-09,  avg # of iterations =  1.0

     total cpu time spent up to now is       89.8 secs

     total energy              =    -190.95801102 Ry
     estimated scf accuracy    <       0.00000045 Ry

     iteration #  9     ecut=    50.00 Ry     beta= 0.30
     Davidson diagonalization with overlap
     ethr =  2.51E-09,  avg # of iterations =  2.0

     total cpu time spent up to now is      100.2 secs

     total energy              =    -190.95801117 Ry
     estimated scf accuracy    <       0.00000019 Ry

     iteration # 10     ecut=    50.00 Ry     beta= 0.30
     Davidson diagonalization with overlap
     ethr =  1.03E-09,  avg # of iterations =  2.0

     total cpu time spent up to now is      109.7 secs

     End of self-consistent calculation

          k = 0.0000 0.0000 0.0000 (  1471 PWs)   bands (ev):

    -6.2953  -6.2953  -6.2953  -6.2953  -5.8918  -5.8918  -5.7986  -5.7986
    -5.7986  -5.7986  -4.9843  -4.9843   8.9414   8.9414   9.3033   9.3033
     9.3033   9.3033  11.1234  11.1234  12.7616  12.7616  12.9688  12.9688
    12.9688  12.9688

          k =-0.2000 0.2000-0.2000 (  1528 PWs)   bands (ev):

    -6.3210  -6.3210  -6.2964  -6.2860  -5.9067  -5.9067  -5.8180  -5.8180
    -5.7940  -5.7823  -4.3868  -4.3868   5.6038   5.6038   8.4104   8.4104
     8.6356   8.6410  11.4236  11.4236  13.6843  13.6843  13.8254  13.8294
    15.1760  15.1760

          k =-0.4000 0.4000-0.4000 (  1504 PWs)   bands (ev):

    -6.3577  -6.3577  -6.2892  -6.2828  -5.9033  -5.9033  -5.8367  -5.8367
    -5.7728  -5.7657  -2.9911  -2.9911   2.0820   2.0820   7.7179   7.7179
     7.9413   7.9441  10.7879  10.7879  13.8278  13.8278  13.9212  13.9226
    17.1983  17.1983

          k = 0.2000 0.2000 0.2000 (  1528 PWs)   bands (ev):

    -6.3210  -6.3210  -6.2964  -6.2860  -5.9067  -5.9067  -5.8180  -5.8180
    -5.7940  -5.7823  -4.3868  -4.3868   5.6038   5.6038   8.4104   8.4104
     8.6356   8.6410  11.4236  11.4236  13.6843  13.6843  13.8254  13.8294
    15.1760  15.1760

          k = 0.0000 0.4000 0.0000 (  1507 PWs)   bands (ev):

    -6.3355  -6.3355  -6.2799  -6.2799  -5.9107  -5.9107  -5.8018  -5.8018
    -5.7988  -5.7988  -4.1978  -4.1978   5.9055   5.9055   7.4349   7.4349
     7.5538   7.5538  11.3648  11.3648  13.2419  13.2419  15.4709  15.4709
    15.4944  15.4944

          k =-0.2000 0.6000-0.2000 (  1527 PWs)   bands (ev):

    -6.3873  -6.3408  -6.2763  -6.2624  -5.9522  -5.8754  -5.8165  -5.8156
    -5.7813  -5.7767  -3.0370  -3.0279   3.0705   3.0946   6.1496   6.1835
     6.8525   6.8580  11.5671  11.5681  13.7976  13.8614  15.1949  15.2388
    16.1280  16.1314

          k = 0.6000-0.2000 0.6000 (  1521 PWs)   bands (ev):

    -6.4042  -6.3396  -6.2725  -6.2582  -5.9695  -5.8513  -5.8387  -5.8199
    -5.7731  -5.7686  -2.2688  -2.2601   1.7528   1.7874   5.2261   5.2627
     7.1618   7.1628  11.7952  11.8042  14.4383  14.4715  15.3546  15.3552
    17.7495  17.7932

          k = 0.4000 0.0000 0.4000 (  1538 PWs)   bands (ev):

    -6.3751  -6.3286  -6.2762  -6.2728  -5.9565  -5.8710  -5.8319  -5.8149
    -5.7827  -5.7782  -3.5152  -3.5022   3.9165   3.9558   5.7805   5.8306
     8.1836   8.1872  12.5067  12.5419  14.3597  14.3643  14.5244  14.5507
    15.2048  15.2277

          k = 0.4000 0.4000 0.4000 (  1504 PWs)   bands (ev):

    -6.3577  -6.3577  -6.2892  -6.2828  -5.9033  -5.9033  -5.8367  -5.8367
    -5.7728  -5.7657  -2.9911  -2.9911   2.0820   2.0820   7.7179   7.7179
     7.9413   7.9441  10.7879  10.7879  13.8278  13.8278  13.9212  13.9226
    17.1983  17.1983

          k = 0.2000 0.6000 0.2000 (  1527 PWs)   bands (ev):

    -6.3873  -6.3408  -6.2763  -6.2624  -5.9522  -5.8754  -5.8165  -5.8156
    -5.7813  -5.7767  -3.0370  -3.0279   3.0705   3.0946   6.1496   6.1835
     6.8525   6.8580  11.5671  11.5681  13.7976  13.8614  15.1949  15.2388
    16.1280  16.1314

          k = 0.0000 0.8000 0.0000 (  1532 PWs)   bands (ev):

    -6.3845  -6.3845  -6.2593  -6.2593  -5.9084  -5.9084  -5.8050  -5.8050
    -5.7725  -5.7725  -2.2682  -2.2682   2.2932   2.2932   5.9534   5.9534
     6.0380   6.0380  10.2618  10.2618  11.0976  11.0976  19.4531  19.4531
    19.5431  19.5431

          k = 0.8000 0.0000 0.8000 (  1522 PWs)   bands (ev):

    -6.4151  -6.3566  -6.2627  -6.2445  -5.9649  -5.8652  -5.8114  -5.7941
    -5.7894  -5.7633  -1.5974  -1.5964   1.5550   1.6040   4.5115   4.5550
     6.1328   6.1340  10.7441  10.7485  13.0736  13.1039  18.6792  18.7098
    18.7919  18.8460

          k = 0.6000 0.2000 0.6000 (  1521 PWs)   bands (ev):

    -6.4042  -6.3396  -6.2725  -6.2582  -5.9695  -5.8513  -5.8387  -5.8199
    -5.7731  -5.7686  -2.2688  -2.2601   1.7528   1.7874   5.2261   5.2627
     7.1618   7.1628  11.7952  11.8042  14.4383  14.4715  15.3546  15.3552
    17.7495  17.7932

          k =-0.2000-0.2000 0.2000 (  1528 PWs)   bands (ev):

    -6.3210  -6.3210  -6.2964  -6.2860  -5.9067  -5.9067  -5.8180  -5.8180
    -5.7940  -5.7823  -4.3868  -4.3868   5.6038   5.6038   8.4104   8.4104
     8.6356   8.6410  11.4236  11.4236  13.6843  13.6843  13.8254  13.8294
    15.1760  15.1760

          k =-0.4000 0.0000 0.0000 (  1507 PWs)   bands (ev):

    -6.3355  -6.3355  -6.2799  -6.2799  -5.9107  -5.9107  -5.8018  -5.8018
    -5.7988  -5.7988  -4.1978  -4.1978   5.9055   5.9055   7.4349   7.4349
     7.5538   7.5538  11.3648  11.3648  13.2419  13.2419  15.4709  15.4709
    15.4944  15.4944

          k =-0.6000 0.2000-0.2000 (  1527 PWs)   bands (ev):

    -6.3873  -6.3408  -6.2763  -6.2624  -5.9522  -5.8754  -5.8165  -5.8156
    -5.7813  -5.7767  -3.0370  -3.0279   3.0705   3.0946   6.1496   6.1835
     6.8525   6.8580  11.5671  11.5681  13.7976  13.8614  15.1949  15.2388
    16.1280  16.1314

          k = 0.2000-0.6000 0.6000 (  1521 PWs)   bands (ev):

    -6.4042  -6.3396  -6.2725  -6.2582  -5.9695  -5.8513  -5.8387  -5.8199
    -5.7731  -5.7686  -2.2688  -2.2601   1.7528   1.7874   5.2261   5.2627
     7.1618   7.1628  11.7952  11.8042  14.4383  14.4715  15.3546  15.3552
    17.7495  17.7932

          k =-0.0000-0.4000 0.4000 (  1538 PWs)   bands (ev):

    -6.3751  -6.3286  -6.2762  -6.2728  -5.9565  -5.8710  -5.8319  -5.8149
    -5.7827  -5.7782  -3.5152  -3.5022   3.9165   3.9558   5.7805   5.8306
     8.1836   8.1872  12.5067  12.5419  14.3597  14.3643  14.5244  14.5507
    15.2048  15.2277

          k = 0.0000 0.0000 0.4000 (  1507 PWs)   bands (ev):

    -6.3355  -6.3355  -6.2799  -6.2799  -5.9107  -5.9107  -5.8018  -5.8018
    -5.7988  -5.7988  -4.1978  -4.1978   5.9055   5.9055   7.4349   7.4349
     7.5538   7.5538  11.3648  11.3648  13.2419  13.2419  15.4709  15.4709
    15.4944  15.4944

          k =-0.2000 0.2000 0.2000 (  1528 PWs)   bands (ev):

    -6.3210  -6.3210  -6.2964  -6.2860  -5.9067  -5.9067  -5.8180  -5.8180
    -5.7940  -5.7823  -4.3868  -4.3868   5.6038   5.6038   8.4104   8.4104
     8.6356   8.6410  11.4236  11.4236  13.6843  13.6843  13.8254  13.8294
    15.1760  15.1760

          k =-0.4000 0.4000 0.0000 (  1538 PWs)   bands (ev):

    -6.3751  -6.3286  -6.2762  -6.2728  -5.9565  -5.8710  -5.8319  -5.8149
    -5.7827  -5.7782  -3.5152  -3.5022   3.9165   3.9558   5.7805   5.8306
     8.1836   8.1872  12.5067  12.5419  14.3597  14.3643  14.5244  14.5507
    15.2048  15.2277

          k = 0.4000-0.4000 0.8000 (  1521 PWs)   bands (ev):

    -6.4042  -6.3396  -6.2725  -6.2582  -5.9695  -5.8513  -5.8387  -5.8199
    -5.7731  -5.7686  -2.2688  -2.2601   1.7528   1.7874   5.2261   5.2627
     7.1618   7.1628  11.7952  11.8042  14.4383  14.4715  15.3546  15.3552
    17.7495  17.7932

          k = 0.2000-0.2000 0.6000 (  1527 PWs)   bands (ev):

    -6.3873  -6.3408  -6.2763  -6.2624  -5.9522  -5.8754  -5.8165  -5.8156
    -5.7813  -5.7767  -3.0370  -3.0279   3.0705   3.0946   6.1496   6.1835
     6.8525   6.8580  11.5671  11.5681  13.7976  13.8614  15.1949  15.2388
    16.1280  16.1314

          k = 0.2000 0.2000 0.6000 (  1527 PWs)   bands (ev):

    -6.3873  -6.3408  -6.2763  -6.2624  -5.9522  -5.8754  -5.8165  -5.8156
    -5.7813  -5.7767  -3.0370  -3.0279   3.0705   3.0946   6.1496   6.1835
     6.8525   6.8580  11.5671  11.5681  13.7976  13.8614  15.1949  15.2388
    16.1280  16.1314

          k = 0.0000 0.4000 0.4000 (  1538 PWs)   bands (ev):

    -6.3751  -6.3286  -6.2762  -6.2728  -5.9565  -5.8710  -5.8319  -5.8149
    -5.7827  -5.7782  -3.5152  -3.5022   3.9165   3.9558   5.7805   5.8306
     8.1836   8.1872  12.5067  12.5419  14.3597  14.3643  14.5244  14.5507
    15.2048  15.2277

          k =-0.2000 0.6000 0.2000 (  1527 PWs)   bands (ev):

    -6.3873  -6.3408  -6.2763  -6.2624  -5.9522  -5.8754  -5.8165  -5.8156
    -5.7813  -5.7767  -3.0370  -3.0279   3.0705   3.0946   6.1496   6.1835
     6.8525   6.8580  11.5671  11.5681  13.7976  13.8614  15.1949  15.2388
    16.1280  16.1314

          k = 0.6000-0.2000 1.0000 (  1531 PWs)   bands (ev):

    -6.4156  -6.3422  -6.2617  -6.2471  -5.9845  -5.8480  -5.8184  -5.8109
    -5.7795  -5.7706  -1.9351  -1.9291   2.0070   2.0644   4.6044   4.6704
     5.7525   5.7870  13.2194  13.2743  13.8225  13.8936  14.4692  14.5237
    18.2372  18.2629

          k = 0.4000 0.0000 0.8000 (  1531 PWs)   bands (ev):

    -6.4156  -6.3422  -6.2617  -6.2471  -5.9845  -5.8480  -5.8184  -5.8109
    -5.7795  -5.7706  -1.9351  -1.9291   2.0070   2.0644   4.6044   4.6704
     5.7525   5.7870  13.2194  13.2743  13.8225  13.8936  14.4692  14.5237
    18.2372  18.2629

          k =-0.6000-0.6000-0.2000 (  1521 PWs)   bands (ev):

    -6.4042  -6.3396  -6.2725  -6.2582  -5.9695  -5.8513  -5.8387  -5.8199
    -5.7731  -5.7686  -2.2688  -2.2601   1.7528   1.7874   5.2261   5.2627
     7.1618   7.1628  11.7952  11.8042  14.4383  14.4715  15.3546  15.3552
    17.7495  17.7932

          k =-0.8000-0.4000-0.4000 (  1521 PWs)   bands (ev):

    -6.4042  -6.3396  -6.2725  -6.2582  -5.9695  -5.8513  -5.8387  -5.8199
    -5.7731  -5.7686  -2.2688  -2.2601   1.7528   1.7874   5.2261   5.2627
     7.1618   7.1628  11.7952  11.8042  14.4383  14.4715  15.3546  15.3552
    17.7495  17.7932

          k =-1.0000-0.2000-0.6000 (  1531 PWs)   bands (ev):

    -6.4156  -6.3422  -6.2617  -6.2471  -5.9845  -5.8480  -5.8184  -5.8109
    -5.7795  -5.7706  -1.9351  -1.9291   2.0070   2.0644   4.6044   4.6704
     5.7525   5.7870  13.2194  13.2743  13.8225  13.8936  14.4692  14.5237
    18.2372  18.2629

          k =-0.2000-1.0000 0.2000 (  1522 PWs)   bands (ev):

    -6.4151  -6.3566  -6.2627  -6.2445  -5.9649  -5.8652  -5.8114  -5.7941
    -5.7894  -5.7633  -1.5974  -1.5964   1.5550   1.6040   4.5115   4.5550
     6.1328   6.1340  10.7441  10.7485  13.0736  13.1039  18.6792  18.7098
    18.7919  18.8460

          k =-0.4000-0.8000-0.0000 (  1531 PWs)   bands (ev):

    -6.4156  -6.3422  -6.2617  -6.2471  -5.9845  -5.8480  -5.8184  -5.8109
    -5.7795  -5.7706  -1.9351  -1.9291   2.0070   2.0644   4.6044   4.6704
     5.7525   5.7870  13.2194  13.2743  13.8225  13.8936  14.4692  14.5237
    18.2372  18.2629

          k =-0.4000-0.4000 0.0000 (  1538 PWs)   bands (ev):

    -6.3751  -6.3286  -6.2762  -6.2728  -5.9565  -5.8710  -5.8319  -5.8149
    -5.7827  -5.7782  -3.5152  -3.5022   3.9165   3.9558   5.7805   5.8306
     8.1836   8.1872  12.5067  12.5419  14.3597  14.3643  14.5244  14.5507
    15.2048  15.2277

          k =-0.6000-0.2000-0.2000 (  1527 PWs)   bands (ev):

    -6.3873  -6.3408  -6.2763  -6.2624  -5.9522  -5.8754  -5.8165  -5.8156
    -5.7813  -5.7767  -3.0370  -3.0279   3.0705   3.0946   6.1496   6.1835
     6.8525   6.8580  11.5671  11.5681  13.7976  13.8614  15.1949  15.2388
    16.1280  16.1314

          k =-0.8000 0.0000-0.4000 (  1531 PWs)   bands (ev):

    -6.4156  -6.3422  -6.2617  -6.2471  -5.9845  -5.8480  -5.8184  -5.8109
    -5.7795  -5.7706  -1.9351  -1.9291   2.0070   2.0644   4.6044   4.6704
     5.7525   5.7870  13.2194  13.2743  13.8225  13.8936  14.4692  14.5237
    18.2372  18.2629

          k = 0.0000-0.8000 0.4000 (  1531 PWs)   bands (ev):

    -6.4156  -6.3422  -6.2617  -6.2471  -5.9845  -5.8480  -5.8184  -5.8109
    -5.7795  -5.7706  -1.9351  -1.9291   2.0070   2.0644   4.6044   4.6704
     5.7525   5.7870  13.2194  13.2743  13.8225  13.8936  14.4692  14.5237
    18.2372  18.2629

          k =-0.2000-0.6000 0.2000 (  1527 PWs)   bands (ev):

    -6.3873  -6.3408  -6.2763  -6.2624  -5.9522  -5.8754  -5.8165  -5.8156
    -5.7813  -5.7767  -3.0370  -3.0279   3.0705   3.0946   6.1496   6.1835
     6.8525   6.8580  11.5671  11.5681  13.7976  13.8614  15.1949  15.2388
    16.1280  16.1314

          k =-0.4000-0.4000 0.4000 (  1504 PWs)   bands (ev):

    -6.3577  -6.3577  -6.2892  -6.2828  -5.9033  -5.9033  -5.8367  -5.8367
    -5.7728  -5.7657  -2.9911  -2.9911   2.0820   2.0820   7.7179   7.7179
     7.9413   7.9441  10.7879  10.7879  13.8278  13.8278  13.9212  13.9226
    17.1983  17.1983

          k =-0.6000-0.2000 0.2000 (  1527 PWs)   bands (ev):

    -6.3873  -6.3408  -6.2763  -6.2624  -5.9522  -5.8754  -5.8165  -5.8156
    -5.7813  -5.7767  -3.0370  -3.0279   3.0705   3.0946   6.1496   6.1835
     6.8525   6.8580  11.5671  11.5681  13.7976  13.8614  15.1949  15.2388
    16.1280  16.1314

          k =-0.8000 0.0000 0.0000 (  1532 PWs)   bands (ev):

    -6.3845  -6.3845  -6.2593  -6.2593  -5.9084  -5.9084  -5.8050  -5.8050
    -5.7725  -5.7725  -2.2682  -2.2682   2.2932   2.2932   5.9534   5.9534
     6.0380   6.0380  10.2618  10.2618  11.0976  11.0976  19.4531  19.4531
    19.5431  19.5431

          k = 0.0000-0.8000 0.8000 (  1522 PWs)   bands (ev):

    -6.4151  -6.3566  -6.2627  -6.2445  -5.9649  -5.8652  -5.8114  -5.7941
    -5.7894  -5.7633  -1.5974  -1.5964   1.5550   1.6040   4.5115   4.5550
     6.1328   6.1340  10.7441  10.7485  13.0736  13.1039  18.6792  18.7098
    18.7919  18.8460

          k =-0.2000-0.6000 0.6000 (  1521 PWs)   bands (ev):

    -6.4042  -6.3396  -6.2725  -6.2582  -5.9695  -5.8513  -5.8387  -5.8199
    -5.7731  -5.7686  -2.2688  -2.2601   1.7528   1.7874   5.2261   5.2627
     7.1618   7.1628  11.7952  11.8042  14.4383  14.4715  15.3546  15.3552
    17.7495  17.7932

          k =-0.2000-0.2000 0.6000 (  1527 PWs)   bands (ev):

    -6.3873  -6.3408  -6.2763  -6.2624  -5.9522  -5.8754  -5.8165  -5.8156
    -5.7813  -5.7767  -3.0370  -3.0279   3.0705   3.0946   6.1496   6.1835
     6.8525   6.8580  11.5671  11.5681  13.7976  13.8614  15.1949  15.2388
    16.1280  16.1314

          k =-0.4000 0.0000 0.4000 (  1538 PWs)   bands (ev):

    -6.3751  -6.3286  -6.2762  -6.2728  -5.9565  -5.8710  -5.8319  -5.8149
    -5.7827  -5.7782  -3.5152  -3.5022   3.9165   3.9558   5.7805   5.8306
     8.1836   8.1872  12.5067  12.5419  14.3597  14.3643  14.5244  14.5507
    15.2048  15.2277

          k =-0.6000 0.2000 0.2000 (  1527 PWs)   bands (ev):

    -6.3873  -6.3408  -6.2763  -6.2624  -5.9522  -5.8754  -5.8165  -5.8156
    -5.7813  -5.7767  -3.0370  -3.0279   3.0705   3.0946   6.1496   6.1835
     6.8525   6.8580  11.5671  11.5681  13.7976  13.8614  15.1949  15.2388
    16.1280  16.1314

          k = 0.2000-0.6000 1.0000 (  1531 PWs)   bands (ev):

    -6.4156  -6.3422  -6.2617  -6.2471  -5.9845  -5.8480  -5.8184  -5.8109
    -5.7795  -5.7706  -1.9351  -1.9291   2.0070   2.0644   4.6044   4.6704
     5.7525   5.7870  13.2194  13.2743  13.8225  13.8936  14.4692  14.5237
    18.2372  18.2629

          k =-0.0000-0.4000 0.8000 (  1531 PWs)   bands (ev):

    -6.4156  -6.3422  -6.2617  -6.2471  -5.9845  -5.8480  -5.8184  -5.8109
    -5.7795  -5.7706  -1.9351  -1.9291   2.0070   2.0644   4.6044   4.6704
     5.7525   5.7870  13.2194  13.2743  13.8225  13.8936  14.4692  14.5237
    18.2372  18.2629

          k = 0.0000 0.0000 0.8000 (  1532 PWs)   bands (ev):

    -6.3845  -6.3845  -6.2593  -6.2593  -5.9084  -5.9084  -5.8050  -5.8050
    -5.7725  -5.7725  -2.2682  -2.2682   2.2932   2.2932   5.9534   5.9534
     6.0380   6.0380  10.2618  10.2618  11.0976  11.0976  19.4531  19.4531
    19.5431  19.5432

          k =-0.2000 0.2000 0.6000 (  1527 PWs)   bands (ev):

    -6.3873  -6.3408  -6.2763  -6.2624  -5.9522  -5.8754  -5.8165  -5.8156
    -5.7813  -5.7767  -3.0370  -3.0279   3.0705   3.0946   6.1496   6.1835
     6.8525   6.8580  11.5671  11.5681  13.7976  13.8614  15.1949  15.2388
    16.1280  16.1314

          k =-0.4000 0.4000 0.4000 (  1504 PWs)   bands (ev):

    -6.3577  -6.3577  -6.2892  -6.2828  -5.9033  -5.9033  -5.8367  -5.8367
    -5.7728  -5.7657  -2.9911  -2.9911   2.0820   2.0820   7.7179   7.7179
     7.9413   7.9441  10.7879  10.7879  13.8278  13.8278  13.9212  13.9226
    17.1983  17.1983

          k = 0.4000-0.4000 1.2000 (  1521 PWs)   bands (ev):

    -6.4042  -6.3396  -6.2725  -6.2582  -5.9695  -5.8513  -5.8387  -5.8199
    -5.7731  -5.7686  -2.2688  -2.2601   1.7528   1.7874   5.2261   5.2627
     7.1618   7.1628  11.7952  11.8042  14.4383  14.4715  15.3546  15.3552
    17.7495  17.7932

          k = 0.2000-0.2000 1.0000 (  1522 PWs)   bands (ev):

    -6.4151  -6.3566  -6.2627  -6.2445  -5.9649  -5.8652  -5.8114  -5.7941
    -5.7894  -5.7633  -1.5974  -1.5964   1.5550   1.6040   4.5115   4.5550
     6.1328   6.1340  10.7441  10.7485  13.0736  13.1039  18.6792  18.7098
    18.7919  18.8460

          k =-0.8000-0.8000 0.0000 (  1522 PWs)   bands (ev):

    -6.4151  -6.3566  -6.2627  -6.2445  -5.9649  -5.8652  -5.8114  -5.7941
    -5.7894  -5.7633  -1.5974  -1.5964   1.5550   1.6040   4.5115   4.5550
     6.1328   6.1340  10.7441  10.7485  13.0736  13.1039  18.6792  18.7098
    18.7919  18.8460

          k =-1.0000-0.6000-0.2000 (  1531 PWs)   bands (ev):

    -6.4156  -6.3422  -6.2617  -6.2471  -5.9845  -5.8480  -5.8184  -5.8109
    -5.7795  -5.7706  -1.9351  -1.9291   2.0070   2.0644   4.6044   4.6704
     5.7525   5.7870  13.2194  13.2743  13.8225  13.8936  14.4692  14.5237
    18.2372  18.2629

          k =-1.2000-0.4000-0.4000 (  1521 PWs)   bands (ev):

    -6.4042  -6.3396  -6.2725  -6.2582  -5.9695  -5.8513  -5.8387  -5.8199
    -5.7731  -5.7686  -2.2688  -2.2601   1.7528   1.7874   5.2261   5.2627
     7.1618   7.1628  11.7952  11.8042  14.4383  14.4715  15.3546  15.3552
    17.7495  17.7932

          k =-0.4000-1.2000 0.4000 (  1521 PWs)   bands (ev):

    -6.4042  -6.3396  -6.2725  -6.2582  -5.9695  -5.8513  -5.8387  -5.8199
    -5.7731  -5.7686  -2.2688  -2.2601   1.7528   1.7874   5.2261   5.2627
     7.1618   7.1628  11.7952  11.8042  14.4383  14.4715  15.3546  15.3552
    17.7495  17.7932

          k =-0.6000-1.0000 0.2000 (  1531 PWs)   bands (ev):

    -6.4156  -6.3422  -6.2617  -6.2471  -5.9845  -5.8480  -5.8184  -5.8109
    -5.7795  -5.7706  -1.9351  -1.9291   2.0070   2.0644   4.6044   4.6704
     5.7525   5.7870  13.2194  13.2743  13.8225  13.8936  14.4692  14.5237
    18.2372  18.2629

          k =-0.6000-0.6000 0.2000 (  1521 PWs)   bands (ev):

    -6.4042  -6.3396  -6.2725  -6.2582  -5.9695  -5.8513  -5.8387  -5.8199
    -5.7731  -5.7686  -2.2688  -2.2601   1.7528   1.7874   5.2261   5.2627
     7.1618   7.1628  11.7952  11.8042  14.4383  14.4715  15.3546  15.3552
    17.7495  17.7932

          k =-0.8000-0.4000 0.0000 (  1531 PWs)   bands (ev):

    -6.4156  -6.3422  -6.2617  -6.2471  -5.9845  -5.8480  -5.8184  -5.8109
    -5.7795  -5.7706  -1.9351  -1.9291   2.0070   2.0644   4.6044   4.6704
     5.7525   5.7870  13.2194  13.2743  13.8225  13.8936  14.4692  14.5237
    18.2372  18.2629

          k =-1.0000-0.2000-0.2000 (  1522 PWs)   bands (ev):

    -6.4151  -6.3566  -6.2627  -6.2445  -5.9649  -5.8652  -5.8114  -5.7941
    -5.7894  -5.7633  -1.5974  -1.5964   1.5550   1.6040   4.5115   4.5550
     6.1328   6.1340  10.7441  10.7485  13.0736  13.1039  18.6792  18.7098
    18.7919  18.8461

          k =-0.2000-1.0000 0.6000 (  1531 PWs)   bands (ev):

    -6.4156  -6.3422  -6.2617  -6.2471  -5.9845  -5.8480  -5.8184  -5.8109
    -5.7795  -5.7706  -1.9351  -1.9291   2.0070   2.0644   4.6044   4.6704
     5.7525   5.7870  13.2194  13.2743  13.8225  13.8936  14.4692  14.5237
    18.2372  18.2629

          k =-0.4000-0.8000 0.4000 (  1521 PWs)   bands (ev):

    -6.4042  -6.3396  -6.2725  -6.2582  -5.9695  -5.8513  -5.8387  -5.8199
    -5.7731  -5.7686  -2.2688  -2.2601   1.7528   1.7874   5.2261   5.2627
     7.1618   7.1628  11.7952  11.8042  14.4383  14.4715  15.3546  15.3552
    17.7495  17.7932

     the Fermi energy is     9.8766 ev

!    total energy              =    -190.95801122 Ry
     estimated scf accuracy    <          3.1E-09 Ry
     smearing contrib. (-TS)   =      -0.00000000 Ry
     internal energy E=F+TS    =    -190.95801122 Ry

     The total energy is F=E-TS. E is the sum of the following terms:
     one-electron contribution =    -102.68374055 Ry
     hartree contribution      =      68.51133227 Ry
     xc contribution           =     -58.11756150 Ry
     ewald contribution        =     -98.66804144 Ry

     convergence has been achieved in  10 iterations

     Writing all to output data dir ./GaAs.save/

     init_run     :     20.34s CPU      4.52s WALL (       1 calls)
     electrons    :    459.85s CPU    104.89s WALL (       1 calls)

     Called by init_run:
     wfcinit      :     18.42s CPU      3.58s WALL (       1 calls)
     potinit      :      0.03s CPU      0.03s WALL (       1 calls)
     hinit0       :      0.60s CPU      0.61s WALL (       1 calls)

     Called by electrons:
     c_bands      :    372.02s CPU     84.78s WALL (      11 calls)
     sum_band     :     80.90s CPU     18.10s WALL (      11 calls)
     v_of_rho     :      0.86s CPU      0.32s WALL (      11 calls)
     newd         :      6.49s CPU      1.73s WALL (      11 calls)
     mix_rho      :      0.52s CPU      0.15s WALL (      11 calls)

     Called by c_bands:
     init_us_2    :      4.40s CPU      0.73s WALL (    1449 calls)
     init_us_2:cp :      4.38s CPU      0.73s WALL (    1449 calls)
     cegterg      :    340.65s CPU     80.08s WALL (     693 calls)

     Called by *egterg:
     cdiaghg      :     10.75s CPU      1.46s WALL (    2065 calls)
     h_psi        :    297.85s CPU     73.89s WALL (    2191 calls)
     s_psi        :      5.46s CPU      1.23s WALL (    2191 calls)
     g_psi        :      0.89s CPU      0.20s WALL (    1435 calls)

     Called by h_psi:
     h_psi:calbec :      7.14s CPU      1.88s WALL (    2191 calls)
     vloc_psi     :    285.31s CPU     70.58s WALL (    2191 calls)
     add_vuspsi   :      4.37s CPU      1.20s WALL (    2191 calls)

     General routines
     calbec       :      9.59s CPU      2.60s WALL (    2884 calls)
     fft          :      0.94s CPU      0.32s WALL (     265 calls)
     ffts         :      0.23s CPU      0.05s WALL (      88 calls)
     fftw         :    287.47s CPU     69.13s WALL (  210748 calls)
     interpolate  :      0.27s CPU      0.10s WALL (      44 calls)


     PWSCF        :   8m 2.15s CPU   1m49.90s WALL


   This run was terminated on:  18:36: 9  12May2024            

=------------------------------------------------------------------------------=
   JOB DONE.
=------------------------------------------------------------------------------=
