
     Program PWSCF v.7.2 starts on 12May2024 at 18:36: 9 

     This program is part of the open-source Quantum ESPRESSO suite
     for quantum simulation of materials; please cite
         "P. Giannozzi et al., J. Phys.:Condens. Matter 21 395502 (2009);
         "P. Giannozzi et al., J. Phys.:Condens. Matter 29 465901 (2017);
         "P. Giannozzi et al., J. Chem. Phys. 152 154105 (2020);
          URL http://www.quantum-espresso.org", 
     in publications or presentations arising from this work. More details at
     http://www.quantum-espresso.org/quote

     Serial version
     0 MiB available memory on the printing compute node when the environment starts

     Waiting for input...
     Reading input from standard input

     Current dimensions of program PWSCF are:
     Max number of different atomic species (ntypx) = 10
     Max number of k-points (npk) =  40000
     Max angular momentum in pseudopotentials (lmaxx) =  4
     file Ga.rel-pbe-dn-rrkjus_psl.0.2.UPF: wavefunction(s)  4S 3D 3D renormalized


     G-vector sticks info
     --------------------
     sticks:   dense  smooth     PW     G-vecs:    dense   smooth      PW
     Sum        1417     721    223                35629    12627    2133

     Using Slab Decomposition



     bravais-lattice index     =            2
     lattice parameter (alat)  =      10.1773  a.u.
     unit-cell volume          =     263.5353 (a.u.)^3
     number of atoms/cell      =            2
     number of atomic types    =            2
     number of electrons       =        18.00
     number of Kohn-Sham states=           26
     kinetic-energy cutoff     =      50.0000  Ry
     charge density cutoff     =     400.0000  Ry
     scf convergence threshold =      1.0E-08
     mixing beta               =       0.3000
     number of iterations used =            8  plain     mixing
     Exchange-correlation= PBE
                           (   1   4   3   4   0   0   0)
     Non magnetic calculation with spin-orbit


     celldm(1)=  10.177308  celldm(2)=   0.000000  celldm(3)=   0.000000
     celldm(4)=   0.000000  celldm(5)=   0.000000  celldm(6)=   0.000000

     crystal axes: (cart. coord. in units of alat)
               a(1) = (  -0.500000   0.000000   0.500000 )  
               a(2) = (   0.000000   0.500000   0.500000 )  
               a(3) = (  -0.500000   0.500000   0.000000 )  

     reciprocal axes: (cart. coord. in units 2 pi/alat)
               b(1) = ( -1.000000 -1.000000  1.000000 )  
               b(2) = (  1.000000  1.000000  1.000000 )  
               b(3) = ( -1.000000  1.000000 -1.000000 )  


     PseudoPot. # 1 for As read from file:
     ../pseudopotential/As.rel-pbe-n-rrkjus_psl.0.2.UPF
     MD5 check sum: fd1d9cb43fef956eb1cdd0c60ce90062
     Pseudo is Ultrasoft + core correction, Zval =  5.0
     Generated using "atomic" code by A. Dal Corso  v.5.0.2 svn rev. 9415
     Using radial grid of 1209 points,  6 beta functions with: 
                l(1) =   0
                l(2) =   0
                l(3) =   1
                l(4) =   1
                l(5) =   1
                l(6) =   1
     Q(r) pseudized with 0 coefficients 


     PseudoPot. # 2 for Ga read from file:
     ../pseudopotential/Ga.rel-pbe-dn-rrkjus_psl.0.2.UPF
     MD5 check sum: b82f27152fdba9c8aaf7d704465ad383
     Pseudo is Ultrasoft + core correction, Zval = 13.0
     Generated using "atomic" code by A. Dal Corso  v.5.0.2 svn rev. 9415
     Using radial grid of 1205 points, 10 beta functions with: 
                l(1) =   0
                l(2) =   0
                l(3) =   1
                l(4) =   1
                l(5) =   1
                l(6) =   1
                l(7) =   2
                l(8) =   2
                l(9) =   2
               l(10) =   2
     Q(r) pseudized with 0 coefficients 


     atomic species   valence    mass     pseudopotential
        As             5.00    74.92160     As( 1.00)
        Ga            13.00    69.72000     Ga( 1.00)

     No symmetry found



   Cartesian axes

     site n.     atom                  positions (alat units)
         1           Ga  tau(   1) = (   0.0000000   0.0000000   0.0000000  )
         2           As  tau(   2) = (   0.2500000   0.2500000   0.2500000  )

     number of k points=    63  Gaussian smearing, width (Ry)=  0.0020
                       cart. coord. in units 2pi/alat
        k(    1) = (   0.0000000   0.0000000   0.0000000), wk =   0.0080000
        k(    2) = (  -0.2000000   0.2000000  -0.2000000), wk =   0.0160000
        k(    3) = (  -0.4000000   0.4000000  -0.4000000), wk =   0.0160000
        k(    4) = (   0.2000000   0.2000000   0.2000000), wk =   0.0160000
        k(    5) = (   0.0000000   0.4000000   0.0000000), wk =   0.0160000
        k(    6) = (  -0.2000000   0.6000000  -0.2000000), wk =   0.0160000
        k(    7) = (   0.6000000  -0.2000000   0.6000000), wk =   0.0160000
        k(    8) = (   0.4000000   0.0000000   0.4000000), wk =   0.0160000
        k(    9) = (   0.4000000   0.4000000   0.4000000), wk =   0.0160000
        k(   10) = (   0.2000000   0.6000000   0.2000000), wk =   0.0160000
        k(   11) = (   0.0000000   0.8000000   0.0000000), wk =   0.0160000
        k(   12) = (   0.8000000   0.0000000   0.8000000), wk =   0.0160000
        k(   13) = (   0.6000000   0.2000000   0.6000000), wk =   0.0160000
        k(   14) = (  -0.2000000  -0.2000000   0.2000000), wk =   0.0160000
        k(   15) = (  -0.4000000   0.0000000   0.0000000), wk =   0.0160000
        k(   16) = (  -0.6000000   0.2000000  -0.2000000), wk =   0.0160000
        k(   17) = (   0.2000000  -0.6000000   0.6000000), wk =   0.0160000
        k(   18) = (  -0.0000000  -0.4000000   0.4000000), wk =   0.0160000
        k(   19) = (   0.0000000   0.0000000   0.4000000), wk =   0.0160000
        k(   20) = (  -0.2000000   0.2000000   0.2000000), wk =   0.0160000
        k(   21) = (  -0.4000000   0.4000000   0.0000000), wk =   0.0160000
        k(   22) = (   0.4000000  -0.4000000   0.8000000), wk =   0.0160000
        k(   23) = (   0.2000000  -0.2000000   0.6000000), wk =   0.0160000
        k(   24) = (   0.2000000   0.2000000   0.6000000), wk =   0.0160000
        k(   25) = (   0.0000000   0.4000000   0.4000000), wk =   0.0160000
        k(   26) = (  -0.2000000   0.6000000   0.2000000), wk =   0.0160000
        k(   27) = (   0.6000000  -0.2000000   1.0000000), wk =   0.0160000
        k(   28) = (   0.4000000   0.0000000   0.8000000), wk =   0.0160000
        k(   29) = (  -0.6000000  -0.6000000  -0.2000000), wk =   0.0160000
        k(   30) = (  -0.8000000  -0.4000000  -0.4000000), wk =   0.0160000
        k(   31) = (  -1.0000000  -0.2000000  -0.6000000), wk =   0.0160000
        k(   32) = (  -0.2000000  -1.0000000   0.2000000), wk =   0.0160000
        k(   33) = (  -0.4000000  -0.8000000  -0.0000000), wk =   0.0160000
        k(   34) = (  -0.4000000  -0.4000000   0.0000000), wk =   0.0160000
        k(   35) = (  -0.6000000  -0.2000000  -0.2000000), wk =   0.0160000
        k(   36) = (  -0.8000000   0.0000000  -0.4000000), wk =   0.0160000
        k(   37) = (   0.0000000  -0.8000000   0.4000000), wk =   0.0160000
        k(   38) = (  -0.2000000  -0.6000000   0.2000000), wk =   0.0160000
        k(   39) = (  -0.4000000  -0.4000000   0.4000000), wk =   0.0160000
        k(   40) = (  -0.6000000  -0.2000000   0.2000000), wk =   0.0160000
        k(   41) = (  -0.8000000   0.0000000   0.0000000), wk =   0.0160000
        k(   42) = (   0.0000000  -0.8000000   0.8000000), wk =   0.0160000
        k(   43) = (  -0.2000000  -0.6000000   0.6000000), wk =   0.0160000
        k(   44) = (  -0.2000000  -0.2000000   0.6000000), wk =   0.0160000
        k(   45) = (  -0.4000000   0.0000000   0.4000000), wk =   0.0160000
        k(   46) = (  -0.6000000   0.2000000   0.2000000), wk =   0.0160000
        k(   47) = (   0.2000000  -0.6000000   1.0000000), wk =   0.0160000
        k(   48) = (  -0.0000000  -0.4000000   0.8000000), wk =   0.0160000
        k(   49) = (   0.0000000   0.0000000   0.8000000), wk =   0.0160000
        k(   50) = (  -0.2000000   0.2000000   0.6000000), wk =   0.0160000
        k(   51) = (  -0.4000000   0.4000000   0.4000000), wk =   0.0160000
        k(   52) = (   0.4000000  -0.4000000   1.2000000), wk =   0.0160000
        k(   53) = (   0.2000000  -0.2000000   1.0000000), wk =   0.0160000
        k(   54) = (  -0.8000000  -0.8000000   0.0000000), wk =   0.0160000
        k(   55) = (  -1.0000000  -0.6000000  -0.2000000), wk =   0.0160000
        k(   56) = (  -1.2000000  -0.4000000  -0.4000000), wk =   0.0160000
        k(   57) = (  -0.4000000  -1.2000000   0.4000000), wk =   0.0160000
        k(   58) = (  -0.6000000  -1.0000000   0.2000000), wk =   0.0160000
        k(   59) = (  -0.6000000  -0.6000000   0.2000000), wk =   0.0160000
        k(   60) = (  -0.8000000  -0.4000000   0.0000000), wk =   0.0160000
        k(   61) = (  -1.0000000  -0.2000000  -0.2000000), wk =   0.0160000
        k(   62) = (  -0.2000000  -1.0000000   0.6000000), wk =   0.0160000
        k(   63) = (  -0.4000000  -0.8000000   0.4000000), wk =   0.0160000

     Dense  grid:    35629 G-vectors     FFT dimensions: (  45,  45,  45)

     Smooth grid:    12627 G-vectors     FFT dimensions: (  36,  36,  36)

     Estimated max dynamical RAM per process >     486.64 MB

     Initial potential from superposition of free atoms

     starting charge      17.9971, renormalised to      18.0000
     Starting wfcs are   26 randomized atomic wfcs

     total cpu time spent up to now is        4.5 secs

     Self-consistent Calculation

     iteration #  1     ecut=    50.00 Ry     beta= 0.30
     Davidson diagonalization with overlap
     ethr =  1.00E-02,  avg # of iterations =  4.0

     Threshold (ethr) on eigenvalues was too large:
     Diagonalizing with lowered threshold

     Davidson diagonalization with overlap
     ethr =  3.03E-04,  avg # of iterations =  2.4

     total cpu time spent up to now is       25.6 secs

     total energy              =    -190.96992015 Ry
     estimated scf accuracy    <       0.05410073 Ry

     iteration #  2     ecut=    50.00 Ry     beta= 0.30
     Davidson diagonalization with overlap
     ethr =  3.01E-04,  avg # of iterations =  1.2

     total cpu time spent up to now is       34.9 secs

     total energy              =    -190.96875567 Ry
     estimated scf accuracy    <       0.01641389 Ry

     iteration #  3     ecut=    50.00 Ry     beta= 0.30
     Davidson diagonalization with overlap
     ethr =  9.12E-05,  avg # of iterations =  2.2

     total cpu time spent up to now is       43.8 secs

     total energy              =    -190.96979738 Ry
     estimated scf accuracy    <       0.00219722 Ry

     iteration #  4     ecut=    50.00 Ry     beta= 0.30
     Davidson diagonalization with overlap
     ethr =  1.22E-05,  avg # of iterations =  2.3

     total cpu time spent up to now is       52.9 secs

     total energy              =    -190.96993430 Ry
     estimated scf accuracy    <       0.00007584 Ry

     iteration #  5     ecut=    50.00 Ry     beta= 0.30
     Davidson diagonalization with overlap
     ethr =  4.21E-07,  avg # of iterations =  2.8

     total cpu time spent up to now is       64.1 secs

     total energy              =    -190.96996195 Ry
     estimated scf accuracy    <       0.00006091 Ry

     iteration #  6     ecut=    50.00 Ry     beta= 0.30
     Davidson diagonalization with overlap
     ethr =  3.38E-07,  avg # of iterations =  1.0

     total cpu time spent up to now is       72.5 secs

     total energy              =    -190.96995868 Ry
     estimated scf accuracy    <       0.00001059 Ry

     iteration #  7     ecut=    50.00 Ry     beta= 0.30
     Davidson diagonalization with overlap
     ethr =  5.88E-08,  avg # of iterations =  2.0

     total cpu time spent up to now is       83.2 secs

     total energy              =    -190.96996282 Ry
     estimated scf accuracy    <       0.00000158 Ry

     iteration #  8     ecut=    50.00 Ry     beta= 0.30
     Davidson diagonalization with overlap
     ethr =  8.77E-09,  avg # of iterations =  1.0

     total cpu time spent up to now is       92.4 secs

     total energy              =    -190.96996248 Ry
     estimated scf accuracy    <       0.00000050 Ry

     iteration #  9     ecut=    50.00 Ry     beta= 0.30
     Davidson diagonalization with overlap
     ethr =  2.75E-09,  avg # of iterations =  2.0

     total cpu time spent up to now is      103.4 secs

     total energy              =    -190.96996265 Ry
     estimated scf accuracy    <       0.00000016 Ry

     iteration # 10     ecut=    50.00 Ry     beta= 0.30
     Davidson diagonalization with overlap
     ethr =  8.92E-10,  avg # of iterations =  2.0

     total cpu time spent up to now is      113.1 secs

     End of self-consistent calculation

          k = 0.0000 0.0000 0.0000 (  1591 PWs)   bands (ev):

    -6.6599  -6.6599  -6.6599  -6.6599  -6.2521  -6.2521  -6.1675  -6.1675
    -6.1675  -6.1675  -5.1631  -5.1631   8.4869   8.4869   8.8436   8.8436
     8.8436   8.8436  10.4060  10.4060  12.3109  12.3109  12.5155  12.5155
    12.5155  12.5155

          k =-0.2000 0.2000-0.2000 (  1552 PWs)   bands (ev):

    -6.6804  -6.6804  -6.6610  -6.6515  -6.2642  -6.2642  -6.1845  -6.1845
    -6.1631  -6.1525  -4.5949  -4.5949   5.2077   5.2077   7.9841   7.9841
     8.2064   8.2115  10.8510  10.8510  13.2035  13.2035  13.3432  13.3469
    14.5574  14.5574

          k =-0.4000 0.4000-0.4000 (  1586 PWs)   bands (ev):

    -6.7115  -6.7115  -6.6546  -6.6488  -6.2640  -6.2640  -6.2019  -6.2019
    -6.1439  -6.1374  -3.2654  -3.2654   1.8097   1.8097   7.3167   7.3167
     7.5366   7.5393  10.2316  10.2316  13.3712  13.3712  13.4655  13.4669
    16.7189  16.7189

          k = 0.2000 0.2000 0.2000 (  1552 PWs)   bands (ev):

    -6.6804  -6.6804  -6.6610  -6.6515  -6.2642  -6.2642  -6.1845  -6.1845
    -6.1631  -6.1525  -4.5949  -4.5949   5.2077   5.2077   7.9841   7.9841
     8.2064   8.2115  10.8510  10.8510  13.2035  13.2035  13.3432  13.3469
    14.5574  14.5574

          k = 0.0000 0.4000 0.0000 (  1559 PWs)   bands (ev):

    -6.6935  -6.6935  -6.6461  -6.6461  -6.2685  -6.2685  -6.1696  -6.1696
    -6.1675  -6.1675  -4.4124  -4.4124   5.4529   5.4529   7.0516   7.0516
     7.1716   7.1716  10.9399  10.9399  12.6630  12.6630  14.9232  14.9232
    14.9451  14.9451

          k =-0.2000 0.6000-0.2000 (  1581 PWs)   bands (ev):

    -6.7394  -6.6976  -6.6428  -6.6304  -6.3079  -6.2386  -6.1830  -6.1827
    -6.1511  -6.1474  -3.3014  -3.2936   2.7324   2.7568   5.7972   5.8335
     6.4917   6.4974  11.1225  11.1233  13.2555  13.3203  14.6720  14.7171
    15.5905  15.5938

          k = 0.6000-0.2000 0.6000 (  1560 PWs)   bands (ev):

    -6.7548  -6.6964  -6.6394  -6.6262  -6.3246  -6.2167  -6.2039  -6.1859
    -6.1438  -6.1399  -2.5805  -2.5730   1.4839   1.5187   4.9036   4.9426
     6.7874   6.7881  11.3211  11.3319  13.8946  13.9286  14.8520  14.8527
    17.1473  17.1878

          k = 0.4000 0.0000 0.4000 (  1558 PWs)   bands (ev):

    -6.7280  -6.6874  -6.6428  -6.6394  -6.3098  -6.2335  -6.1978  -6.1816
    -6.1527  -6.1485  -3.7589  -3.7480   3.5457   3.5848   5.4587   5.5105
     7.7673   7.7703  11.9486  11.9870  13.8650  13.8702  13.9917  14.0195
    14.6727  14.6961

          k = 0.4000 0.4000 0.4000 (  1586 PWs)   bands (ev):

    -6.7115  -6.7115  -6.6546  -6.6488  -6.2640  -6.2640  -6.2019  -6.2019
    -6.1439  -6.1374  -3.2654  -3.2654   1.8097   1.8097   7.3167   7.3167
     7.5366   7.5393  10.2316  10.2316  13.3712  13.3712  13.4655  13.4669
    16.7189  16.7189

          k = 0.2000 0.6000 0.2000 (  1581 PWs)   bands (ev):

    -6.7394  -6.6976  -6.6428  -6.6304  -6.3079  -6.2386  -6.1830  -6.1827
    -6.1511  -6.1474  -3.3014  -3.2936   2.7324   2.7568   5.7972   5.8335
     6.4917   6.4974  11.1225  11.1233  13.2555  13.3203  14.6720  14.7171
    15.5905  15.5938

          k = 0.0000 0.8000 0.0000 (  1592 PWs)   bands (ev):

    -6.7368  -6.7368  -6.6275  -6.6275  -6.2708  -6.2708  -6.1719  -6.1719
    -6.1439  -6.1439  -2.5669  -2.5669   1.9637   1.9637   5.6236   5.6236
     5.7085   5.7085   9.8720   9.8720  10.6841  10.6841  18.7876  18.7876
    18.8740  18.8740

          k = 0.8000 0.0000 0.8000 (  1596 PWs)   bands (ev):

    -6.7654  -6.7116  -6.6305  -6.6143  -6.3221  -6.2307  -6.1778  -6.1635
    -6.1582  -6.1353  -1.9454  -1.9447   1.2698   1.3173   4.2429   4.2876
     5.7976   5.7991  10.3403  10.3442  12.5946  12.6275  18.0292  18.0788
    18.1507  18.1810

          k = 0.6000 0.2000 0.6000 (  1560 PWs)   bands (ev):

    -6.7548  -6.6964  -6.6394  -6.6262  -6.3246  -6.2167  -6.2039  -6.1859
    -6.1438  -6.1399  -2.5805  -2.5730   1.4839   1.5187   4.9036   4.9426
     6.7874   6.7881  11.3211  11.3319  13.8946  13.9286  14.8520  14.8527
    17.1473  17.1878

          k =-0.2000-0.2000 0.2000 (  1552 PWs)   bands (ev):

    -6.6804  -6.6804  -6.6610  -6.6515  -6.2642  -6.2642  -6.1845  -6.1845
    -6.1631  -6.1525  -4.5949  -4.5949   5.2077   5.2077   7.9841   7.9841
     8.2064   8.2115  10.8510  10.8510  13.2035  13.2035  13.3432  13.3469
    14.5574  14.5574

          k =-0.4000 0.0000 0.0000 (  1559 PWs)   bands (ev):

    -6.6935  -6.6935  -6.6461  -6.6461  -6.2685  -6.2685  -6.1696  -6.1696
    -6.1675  -6.1675  -4.4124  -4.4124   5.4529   5.4529   7.0516   7.0516
     7.1716   7.1716  10.9399  10.9399  12.6630  12.6630  14.9232  14.9232
    14.9451  14.9451

          k =-0.6000 0.2000-0.2000 (  1581 PWs)   bands (ev):

    -6.7394  -6.6976  -6.6428  -6.6304  -6.3079  -6.2386  -6.1830  -6.1827
    -6.1511  -6.1474  -3.3014  -3.2936   2.7324   2.7568   5.7972   5.8335
     6.4917   6.4974  11.1225  11.1233  13.2555  13.3203  14.6720  14.7171
    15.5905  15.5938

          k = 0.2000-0.6000 0.6000 (  1560 PWs)   bands (ev):

    -6.7548  -6.6964  -6.6394  -6.6262  -6.3246  -6.2167  -6.2039  -6.1859
    -6.1438  -6.1399  -2.5805  -2.5730   1.4839   1.5187   4.9036   4.9426
     6.7874   6.7881  11.3211  11.3319  13.8946  13.9286  14.8520  14.8527
    17.1473  17.1878

          k =-0.0000-0.4000 0.4000 (  1558 PWs)   bands (ev):

    -6.7280  -6.6874  -6.6428  -6.6394  -6.3098  -6.2335  -6.1978  -6.1816
    -6.1527  -6.1485  -3.7589  -3.7480   3.5457   3.5848   5.4587   5.5105
     7.7673   7.7703  11.9486  11.9870  13.8650  13.8702  13.9917  14.0195
    14.6727  14.6961

          k = 0.0000 0.0000 0.4000 (  1559 PWs)   bands (ev):

    -6.6935  -6.6935  -6.6461  -6.6461  -6.2685  -6.2685  -6.1696  -6.1696
    -6.1675  -6.1675  -4.4124  -4.4124   5.4529   5.4529   7.0516   7.0516
     7.1716   7.1716  10.9399  10.9399  12.6630  12.6630  14.9232  14.9232
    14.9451  14.9451

          k =-0.2000 0.2000 0.2000 (  1552 PWs)   bands (ev):

    -6.6804  -6.6804  -6.6610  -6.6515  -6.2642  -6.2642  -6.1845  -6.1845
    -6.1631  -6.1525  -4.5949  -4.5949   5.2077   5.2077   7.9841   7.9841
     8.2064   8.2115  10.8510  10.8510  13.2035  13.2035  13.3432  13.3469
    14.5574  14.5574

          k =-0.4000 0.4000 0.0000 (  1558 PWs)   bands (ev):

    -6.7280  -6.6874  -6.6428  -6.6394  -6.3098  -6.2335  -6.1978  -6.1816
    -6.1527  -6.1485  -3.7589  -3.7480   3.5457   3.5848   5.4587   5.5105
     7.7673   7.7703  11.9486  11.9870  13.8650  13.8702  13.9917  14.0195
    14.6727  14.6961

          k = 0.4000-0.4000 0.8000 (  1560 PWs)   bands (ev):

    -6.7548  -6.6964  -6.6394  -6.6262  -6.3246  -6.2167  -6.2039  -6.1859
    -6.1438  -6.1399  -2.5805  -2.5730   1.4839   1.5187   4.9036   4.9426
     6.7874   6.7881  11.3211  11.3319  13.8946  13.9286  14.8520  14.8527
    17.1473  17.1878

          k = 0.2000-0.2000 0.6000 (  1581 PWs)   bands (ev):

    -6.7394  -6.6976  -6.6428  -6.6304  -6.3079  -6.2386  -6.1830  -6.1827
    -6.1511  -6.1474  -3.3014  -3.2936   2.7324   2.7568   5.7972   5.8335
     6.4917   6.4974  11.1225  11.1233  13.2555  13.3203  14.6720  14.7171
    15.5905  15.5938

          k = 0.2000 0.2000 0.6000 (  1581 PWs)   bands (ev):

    -6.7394  -6.6976  -6.6428  -6.6304  -6.3079  -6.2386  -6.1830  -6.1827
    -6.1511  -6.1474  -3.3014  -3.2936   2.7324   2.7568   5.7972   5.8335
     6.4917   6.4974  11.1225  11.1233  13.2555  13.3203  14.6720  14.7171
    15.5905  15.5938

          k = 0.0000 0.4000 0.4000 (  1558 PWs)   bands (ev):

    -6.7280  -6.6874  -6.6428  -6.6394  -6.3098  -6.2335  -6.1978  -6.1816
    -6.1527  -6.1485  -3.7589  -3.7480   3.5457   3.5848   5.4587   5.5105
     7.7673   7.7703  11.9486  11.9870  13.8650  13.8702  13.9917  14.0195
    14.6727  14.6961

          k =-0.2000 0.6000 0.2000 (  1581 PWs)   bands (ev):

    -6.7394  -6.6976  -6.6428  -6.6304  -6.3079  -6.2386  -6.1830  -6.1827
    -6.1511  -6.1474  -3.3014  -3.2936   2.7324   2.7568   5.7972   5.8335
     6.4917   6.4974  11.1225  11.1233  13.2555  13.3203  14.6720  14.7171
    15.5905  15.5938

          k = 0.6000-0.2000 1.0000 (  1582 PWs)   bands (ev):

    -6.7659  -6.6990  -6.6298  -6.6166  -6.3386  -6.2140  -6.1856  -6.1776
    -6.1496  -6.1417  -2.2598  -2.2549   1.6959   1.7519   4.3270   4.3940
     5.4388   5.4741  12.7436  12.8027  13.2938  13.3629  13.9647  14.0242
    17.6259  17.6512

          k = 0.4000 0.0000 0.8000 (  1582 PWs)   bands (ev):

    -6.7659  -6.6990  -6.6298  -6.6166  -6.3386  -6.2140  -6.1856  -6.1776
    -6.1496  -6.1417  -2.2598  -2.2549   1.6959   1.7519   4.3270   4.3940
     5.4388   5.4741  12.7436  12.8027  13.2938  13.3629  13.9647  14.0242
    17.6259  17.6512

          k =-0.6000-0.6000-0.2000 (  1560 PWs)   bands (ev):

    -6.7548  -6.6964  -6.6394  -6.6262  -6.3246  -6.2167  -6.2039  -6.1859
    -6.1438  -6.1399  -2.5805  -2.5730   1.4839   1.5187   4.9036   4.9426
     6.7874   6.7881  11.3211  11.3319  13.8946  13.9286  14.8520  14.8527
    17.1473  17.1878

          k =-0.8000-0.4000-0.4000 (  1560 PWs)   bands (ev):

    -6.7548  -6.6964  -6.6394  -6.6262  -6.3246  -6.2167  -6.2039  -6.1859
    -6.1438  -6.1399  -2.5805  -2.5730   1.4839   1.5187   4.9036   4.9426
     6.7874   6.7881  11.3211  11.3319  13.8946  13.9286  14.8520  14.8527
    17.1473  17.1878

          k =-1.0000-0.2000-0.6000 (  1582 PWs)   bands (ev):

    -6.7659  -6.6990  -6.6298  -6.6166  -6.3386  -6.2140  -6.1856  -6.1776
    -6.1496  -6.1417  -2.2598  -2.2549   1.6959   1.7519   4.3270   4.3940
     5.4388   5.4741  12.7436  12.8027  13.2938  13.3629  13.9647  14.0242
    17.6259  17.6512

          k =-0.2000-1.0000 0.2000 (  1596 PWs)   bands (ev):

    -6.7654  -6.7116  -6.6305  -6.6143  -6.3221  -6.2307  -6.1778  -6.1635
    -6.1582  -6.1353  -1.9454  -1.9447   1.2698   1.3173   4.2429   4.2876
     5.7976   5.7991  10.3403  10.3442  12.5946  12.6275  18.0292  18.0788
    18.1507  18.1810

          k =-0.4000-0.8000-0.0000 (  1582 PWs)   bands (ev):

    -6.7659  -6.6990  -6.6298  -6.6166  -6.3386  -6.2140  -6.1856  -6.1776
    -6.1496  -6.1417  -2.2598  -2.2549   1.6959   1.7519   4.3270   4.3940
     5.4388   5.4741  12.7436  12.8027  13.2938  13.3629  13.9647  14.0242
    17.6259  17.6512

          k =-0.4000-0.4000 0.0000 (  1558 PWs)   bands (ev):

    -6.7280  -6.6874  -6.6428  -6.6394  -6.3098  -6.2335  -6.1978  -6.1816
    -6.1527  -6.1485  -3.7589  -3.7480   3.5457   3.5848   5.4587   5.5105
     7.7673   7.7703  11.9486  11.9870  13.8650  13.8702  13.9917  14.0195
    14.6727  14.6961

          k =-0.6000-0.2000-0.2000 (  1581 PWs)   bands (ev):

    -6.7394  -6.6976  -6.6428  -6.6304  -6.3079  -6.2386  -6.1830  -6.1827
    -6.1511  -6.1474  -3.3014  -3.2936   2.7324   2.7568   5.7972   5.8335
     6.4917   6.4974  11.1225  11.1233  13.2555  13.3203  14.6720  14.7171
    15.5905  15.5938

          k =-0.8000 0.0000-0.4000 (  1582 PWs)   bands (ev):

    -6.7659  -6.6990  -6.6298  -6.6166  -6.3386  -6.2140  -6.1856  -6.1776
    -6.1496  -6.1417  -2.2598  -2.2549   1.6959   1.7519   4.3270   4.3940
     5.4388   5.4741  12.7436  12.8027  13.2938  13.3629  13.9647  14.0242
    17.6259  17.6512

          k = 0.0000-0.8000 0.4000 (  1582 PWs)   bands (ev):

    -6.7659  -6.6990  -6.6298  -6.6166  -6.3386  -6.2140  -6.1856  -6.1776
    -6.1496  -6.1417  -2.2598  -2.2549   1.6959   1.7519   4.3270   4.3940
     5.4388   5.4741  12.7436  12.8027  13.2938  13.3629  13.9647  14.0242
    17.6259  17.6512

          k =-0.2000-0.6000 0.2000 (  1581 PWs)   bands (ev):

    -6.7394  -6.6976  -6.6428  -6.6304  -6.3079  -6.2386  -6.1830  -6.1827
    -6.1511  -6.1474  -3.3014  -3.2936   2.7324   2.7568   5.7972   5.8335
     6.4917   6.4974  11.1225  11.1233  13.2555  13.3203  14.6720  14.7171
    15.5905  15.5938

          k =-0.4000-0.4000 0.4000 (  1586 PWs)   bands (ev):

    -6.7115  -6.7115  -6.6546  -6.6488  -6.2640  -6.2640  -6.2019  -6.2019
    -6.1439  -6.1374  -3.2654  -3.2654   1.8097   1.8097   7.3167   7.3167
     7.5366   7.5393  10.2316  10.2316  13.3712  13.3712  13.4655  13.4669
    16.7189  16.7189

          k =-0.6000-0.2000 0.2000 (  1581 PWs)   bands (ev):

    -6.7394  -6.6976  -6.6428  -6.6304  -6.3079  -6.2386  -6.1830  -6.1827
    -6.1511  -6.1474  -3.3014  -3.2936   2.7324   2.7568   5.7972   5.8335
     6.4917   6.4974  11.1225  11.1233  13.2555  13.3203  14.6720  14.7171
    15.5905  15.5938

          k =-0.8000 0.0000 0.0000 (  1592 PWs)   bands (ev):

    -6.7368  -6.7368  -6.6275  -6.6275  -6.2708  -6.2708  -6.1719  -6.1719
    -6.1439  -6.1439  -2.5669  -2.5669   1.9637   1.9637   5.6236   5.6236
     5.7085   5.7085   9.8720   9.8720  10.6841  10.6841  18.7876  18.7876
    18.8740  18.8740

          k = 0.0000-0.8000 0.8000 (  1596 PWs)   bands (ev):

    -6.7654  -6.7116  -6.6305  -6.6143  -6.3221  -6.2307  -6.1778  -6.1635
    -6.1582  -6.1353  -1.9454  -1.9447   1.2698   1.3173   4.2429   4.2876
     5.7976   5.7991  10.3403  10.3442  12.5946  12.6275  18.0292  18.0788
    18.1507  18.1810

          k =-0.2000-0.6000 0.6000 (  1560 PWs)   bands (ev):

    -6.7548  -6.6964  -6.6394  -6.6262  -6.3246  -6.2167  -6.2039  -6.1859
    -6.1438  -6.1399  -2.5805  -2.5730   1.4839   1.5187   4.9036   4.9426
     6.7874   6.7881  11.3211  11.3319  13.8946  13.9286  14.8520  14.8527
    17.1473  17.1878

          k =-0.2000-0.2000 0.6000 (  1581 PWs)   bands (ev):

    -6.7394  -6.6976  -6.6428  -6.6304  -6.3079  -6.2386  -6.1830  -6.1827
    -6.1511  -6.1474  -3.3014  -3.2936   2.7324   2.7568   5.7972   5.8335
     6.4917   6.4974  11.1225  11.1233  13.2555  13.3203  14.6720  14.7171
    15.5905  15.5938

          k =-0.4000 0.0000 0.4000 (  1558 PWs)   bands (ev):

    -6.7280  -6.6874  -6.6428  -6.6394  -6.3098  -6.2335  -6.1978  -6.1816
    -6.1527  -6.1485  -3.7589  -3.7480   3.5457   3.5848   5.4587   5.5105
     7.7673   7.7703  11.9486  11.9870  13.8650  13.8702  13.9917  14.0195
    14.6727  14.6961

          k =-0.6000 0.2000 0.2000 (  1581 PWs)   bands (ev):

    -6.7394  -6.6976  -6.6428  -6.6304  -6.3079  -6.2386  -6.1830  -6.1827
    -6.1511  -6.1474  -3.3014  -3.2936   2.7324   2.7568   5.7972   5.8335
     6.4917   6.4974  11.1225  11.1233  13.2555  13.3203  14.6720  14.7171
    15.5905  15.5938

          k = 0.2000-0.6000 1.0000 (  1582 PWs)   bands (ev):

    -6.7659  -6.6990  -6.6298  -6.6166  -6.3386  -6.2140  -6.1856  -6.1776
    -6.1496  -6.1417  -2.2598  -2.2549   1.6959   1.7519   4.3270   4.3940
     5.4388   5.4741  12.7436  12.8027  13.2938  13.3629  13.9647  14.0242
    17.6259  17.6512

          k =-0.0000-0.4000 0.8000 (  1582 PWs)   bands (ev):

    -6.7659  -6.6990  -6.6298  -6.6166  -6.3386  -6.2140  -6.1856  -6.1776
    -6.1496  -6.1417  -2.2598  -2.2549   1.6959   1.7519   4.3270   4.3940
     5.4388   5.4741  12.7436  12.8027  13.2938  13.3629  13.9647  14.0242
    17.6259  17.6512

          k = 0.0000 0.0000 0.8000 (  1592 PWs)   bands (ev):

    -6.7368  -6.7368  -6.6275  -6.6275  -6.2708  -6.2708  -6.1719  -6.1719
    -6.1439  -6.1439  -2.5669  -2.5669   1.9637   1.9637   5.6236   5.6236
     5.7085   5.7085   9.8720   9.8720  10.6841  10.6841  18.7876  18.7876
    18.8740  18.8740

          k =-0.2000 0.2000 0.6000 (  1581 PWs)   bands (ev):

    -6.7394  -6.6976  -6.6428  -6.6304  -6.3079  -6.2386  -6.1830  -6.1827
    -6.1511  -6.1474  -3.3014  -3.2936   2.7324   2.7568   5.7972   5.8335
     6.4917   6.4974  11.1225  11.1233  13.2555  13.3203  14.6720  14.7171
    15.5905  15.5938

          k =-0.4000 0.4000 0.4000 (  1586 PWs)   bands (ev):

    -6.7115  -6.7115  -6.6546  -6.6488  -6.2640  -6.2640  -6.2019  -6.2019
    -6.1439  -6.1374  -3.2654  -3.2654   1.8097   1.8097   7.3167   7.3167
     7.5366   7.5393  10.2316  10.2316  13.3712  13.3712  13.4655  13.4669
    16.7189  16.7189

          k = 0.4000-0.4000 1.2000 (  1560 PWs)   bands (ev):

    -6.7548  -6.6964  -6.6394  -6.6262  -6.3246  -6.2167  -6.2039  -6.1859
    -6.1438  -6.1399  -2.5805  -2.5730   1.4839   1.5187   4.9036   4.9426
     6.7874   6.7881  11.3211  11.3319  13.8946  13.9286  14.8520  14.8527
    17.1473  17.1878

          k = 0.2000-0.2000 1.0000 (  1596 PWs)   bands (ev):

    -6.7654  -6.7116  -6.6305  -6.6143  -6.3221  -6.2307  -6.1778  -6.1635
    -6.1582  -6.1353  -1.9454  -1.9447   1.2698   1.3173   4.2429   4.2876
     5.7976   5.7991  10.3403  10.3442  12.5946  12.6275  18.0292  18.0788
    18.1507  18.1810

          k =-0.8000-0.8000 0.0000 (  1596 PWs)   bands (ev):

    -6.7654  -6.7116  -6.6305  -6.6143  -6.3221  -6.2307  -6.1778  -6.1635
    -6.1582  -6.1353  -1.9454  -1.9447   1.2698   1.3173   4.2429   4.2876
     5.7976   5.7991  10.3403  10.3442  12.5946  12.6275  18.0292  18.0788
    18.1507  18.1810

          k =-1.0000-0.6000-0.2000 (  1582 PWs)   bands (ev):

    -6.7659  -6.6990  -6.6298  -6.6166  -6.3386  -6.2140  -6.1856  -6.1776
    -6.1496  -6.1417  -2.2598  -2.2549   1.6959   1.7519   4.3270   4.3940
     5.4388   5.4741  12.7436  12.8027  13.2938  13.3629  13.9647  14.0242
    17.6259  17.6512

          k =-1.2000-0.4000-0.4000 (  1560 PWs)   bands (ev):

    -6.7548  -6.6964  -6.6394  -6.6262  -6.3246  -6.2167  -6.2039  -6.1859
    -6.1438  -6.1399  -2.5805  -2.5730   1.4839   1.5187   4.9036   4.9426
     6.7874   6.7881  11.3211  11.3319  13.8946  13.9286  14.8520  14.8527
    17.1473  17.1878

          k =-0.4000-1.2000 0.4000 (  1560 PWs)   bands (ev):

    -6.7548  -6.6964  -6.6394  -6.6262  -6.3246  -6.2167  -6.2039  -6.1859
    -6.1438  -6.1399  -2.5805  -2.5730   1.4839   1.5187   4.9036   4.9426
     6.7874   6.7881  11.3211  11.3319  13.8946  13.9286  14.8520  14.8527
    17.1473  17.1878

          k =-0.6000-1.0000 0.2000 (  1582 PWs)   bands (ev):

    -6.7659  -6.6990  -6.6298  -6.6166  -6.3386  -6.2140  -6.1856  -6.1776
    -6.1496  -6.1417  -2.2598  -2.2549   1.6959   1.7519   4.3270   4.3940
     5.4388   5.4741  12.7436  12.8027  13.2938  13.3629  13.9647  14.0242
    17.6259  17.6512

          k =-0.6000-0.6000 0.2000 (  1560 PWs)   bands (ev):

    -6.7548  -6.6964  -6.6394  -6.6262  -6.3246  -6.2167  -6.2039  -6.1859
    -6.1438  -6.1399  -2.5805  -2.5730   1.4839   1.5187   4.9036   4.9426
     6.7874   6.7881  11.3211  11.3319  13.8946  13.9286  14.8520  14.8527
    17.1473  17.1878

          k =-0.8000-0.4000 0.0000 (  1582 PWs)   bands (ev):

    -6.7659  -6.6990  -6.6298  -6.6166  -6.3386  -6.2140  -6.1856  -6.1776
    -6.1496  -6.1417  -2.2598  -2.2549   1.6959   1.7519   4.3270   4.3940
     5.4388   5.4741  12.7436  12.8027  13.2938  13.3629  13.9647  14.0242
    17.6259  17.6512

          k =-1.0000-0.2000-0.2000 (  1596 PWs)   bands (ev):

    -6.7654  -6.7116  -6.6305  -6.6143  -6.3221  -6.2307  -6.1778  -6.1635
    -6.1582  -6.1353  -1.9454  -1.9447   1.2698   1.3173   4.2429   4.2876
     5.7976   5.7991  10.3403  10.3442  12.5946  12.6275  18.0292  18.0788
    18.1507  18.1810

          k =-0.2000-1.0000 0.6000 (  1582 PWs)   bands (ev):

    -6.7659  -6.6990  -6.6298  -6.6166  -6.3386  -6.2140  -6.1856  -6.1776
    -6.1496  -6.1417  -2.2598  -2.2549   1.6959   1.7519   4.3270   4.3940
     5.4388   5.4741  12.7436  12.8027  13.2938  13.3629  13.9647  14.0242
    17.6259  17.6512

          k =-0.4000-0.8000 0.4000 (  1560 PWs)   bands (ev):

    -6.7548  -6.6964  -6.6394  -6.6262  -6.3246  -6.2167  -6.2039  -6.1859
    -6.1438  -6.1399  -2.5805  -2.5730   1.4839   1.5187   4.9036   4.9426
     6.7874   6.7881  11.3211  11.3319  13.8946  13.9286  14.8520  14.8527
    17.1473  17.1878

     the Fermi energy is     9.3271 ev

!    total energy              =    -190.96996269 Ry
     estimated scf accuracy    <          1.3E-10 Ry
     smearing contrib. (-TS)   =      -0.00000000 Ry
     internal energy E=F+TS    =    -190.96996269 Ry

     The total energy is F=E-TS. E is the sum of the following terms:
     one-electron contribution =    -104.33125140 Ry
     hartree contribution      =      69.08089754 Ry
     xc contribution           =     -58.07935949 Ry
     ewald contribution        =     -97.64024934 Ry

     convergence has been achieved in  10 iterations

     Writing all to output data dir ./GaAs.save/

     init_run     :     15.31s CPU      4.18s WALL (       1 calls)
     electrons    :    491.84s CPU    108.56s WALL (       1 calls)

     Called by init_run:
     wfcinit      :     14.11s CPU      3.37s WALL (       1 calls)
     potinit      :      0.03s CPU      0.03s WALL (       1 calls)
     hinit0       :      0.60s CPU      0.61s WALL (       1 calls)

     Called by electrons:
     c_bands      :    388.98s CPU     86.20s WALL (      11 calls)
     sum_band     :     94.95s CPU     20.19s WALL (      11 calls)
     v_of_rho     :      0.88s CPU      0.34s WALL (      11 calls)
     newd         :      6.71s CPU      1.76s WALL (      11 calls)
     mix_rho      :      0.59s CPU      0.16s WALL (      11 calls)

     Called by c_bands:
     init_us_2    :      4.54s CPU      0.73s WALL (    1449 calls)
     init_us_2:cp :      4.52s CPU      0.73s WALL (    1449 calls)
     cegterg      :    360.26s CPU     81.94s WALL (     693 calls)

     Called by *egterg:
     cdiaghg      :     10.83s CPU      1.49s WALL (    2072 calls)
     h_psi        :    311.73s CPU     75.80s WALL (    2198 calls)
     s_psi        :      5.69s CPU      1.24s WALL (    2198 calls)
     g_psi        :      1.23s CPU      0.22s WALL (    1442 calls)

     Called by h_psi:
     h_psi:calbec :      6.57s CPU      1.92s WALL (    2198 calls)
     vloc_psi     :    299.71s CPU     72.46s WALL (    2198 calls)
     add_vuspsi   :      4.28s CPU      1.17s WALL (    2198 calls)

     General routines
     calbec       :     14.80s CPU      3.78s WALL (    2891 calls)
     fft          :      1.06s CPU      0.32s WALL (     265 calls)
     ffts         :      0.26s CPU      0.05s WALL (      88 calls)
     fftw         :    305.82s CPU     71.97s WALL (  210704 calls)
     interpolate  :      0.22s CPU      0.08s WALL (      44 calls)


     PWSCF        :   8m28.96s CPU   1m53.19s WALL


   This run was terminated on:  18:38: 3  12May2024            

=------------------------------------------------------------------------------=
   JOB DONE.
=------------------------------------------------------------------------------=
