
     Program PWSCF v.7.2 starts on 12May2024 at 18:49:41 

     This program is part of the open-source Quantum ESPRESSO suite
     for quantum simulation of materials; please cite
         "P. Giannozzi et al., J. Phys.:Condens. Matter 21 395502 (2009);
         "P. Giannozzi et al., J. Phys.:Condens. Matter 29 465901 (2017);
         "P. Giannozzi et al., J. Chem. Phys. 152 154105 (2020);
          URL http://www.quantum-espresso.org", 
     in publications or presentations arising from this work. More details at
     http://www.quantum-espresso.org/quote

     Serial version
     0 MiB available memory on the printing compute node when the environment starts

     Waiting for input...
     Reading input from standard input

     Current dimensions of program PWSCF are:
     Max number of different atomic species (ntypx) = 10
     Max number of k-points (npk) =  40000
     Max angular momentum in pseudopotentials (lmaxx) =  4
     file Ga.rel-pbe-dn-rrkjus_psl.0.2.UPF: wavefunction(s)  4S 3D 3D renormalized


     G-vector sticks info
     --------------------
     sticks:   dense  smooth     PW     G-vecs:    dense   smooth      PW
     Sum        1651     823    253                44039    15593    2685

     Using Slab Decomposition



     bravais-lattice index     =            2
     lattice parameter (alat)  =      10.9194  a.u.
     unit-cell volume          =     325.4893 (a.u.)^3
     number of atoms/cell      =            2
     number of atomic types    =            2
     number of electrons       =        18.00
     number of Kohn-Sham states=           26
     kinetic-energy cutoff     =      50.0000  Ry
     charge density cutoff     =     400.0000  Ry
     scf convergence threshold =      1.0E-08
     mixing beta               =       0.3000
     number of iterations used =            8  plain     mixing
     Exchange-correlation= PBE
                           (   1   4   3   4   0   0   0)
     Non magnetic calculation with spin-orbit


     celldm(1)=  10.919404  celldm(2)=   0.000000  celldm(3)=   0.000000
     celldm(4)=   0.000000  celldm(5)=   0.000000  celldm(6)=   0.000000

     crystal axes: (cart. coord. in units of alat)
               a(1) = (  -0.500000   0.000000   0.500000 )  
               a(2) = (   0.000000   0.500000   0.500000 )  
               a(3) = (  -0.500000   0.500000   0.000000 )  

     reciprocal axes: (cart. coord. in units 2 pi/alat)
               b(1) = ( -1.000000 -1.000000  1.000000 )  
               b(2) = (  1.000000  1.000000  1.000000 )  
               b(3) = ( -1.000000  1.000000 -1.000000 )  


     PseudoPot. # 1 for As read from file:
     ../pseudopotential/As.rel-pbe-n-rrkjus_psl.0.2.UPF
     MD5 check sum: fd1d9cb43fef956eb1cdd0c60ce90062
     Pseudo is Ultrasoft + core correction, Zval =  5.0
     Generated using "atomic" code by A. Dal Corso  v.5.0.2 svn rev. 9415
     Using radial grid of 1209 points,  6 beta functions with: 
                l(1) =   0
                l(2) =   0
                l(3) =   1
                l(4) =   1
                l(5) =   1
                l(6) =   1
     Q(r) pseudized with 0 coefficients 


     PseudoPot. # 2 for Ga read from file:
     ../pseudopotential/Ga.rel-pbe-dn-rrkjus_psl.0.2.UPF
     MD5 check sum: b82f27152fdba9c8aaf7d704465ad383
     Pseudo is Ultrasoft + core correction, Zval = 13.0
     Generated using "atomic" code by A. Dal Corso  v.5.0.2 svn rev. 9415
     Using radial grid of 1205 points, 10 beta functions with: 
                l(1) =   0
                l(2) =   0
                l(3) =   1
                l(4) =   1
                l(5) =   1
                l(6) =   1
                l(7) =   2
                l(8) =   2
                l(9) =   2
               l(10) =   2
     Q(r) pseudized with 0 coefficients 


     atomic species   valence    mass     pseudopotential
        As             5.00    74.92160     As( 1.00)
        Ga            13.00    69.72000     Ga( 1.00)

     No symmetry found



   Cartesian axes

     site n.     atom                  positions (alat units)
         1           Ga  tau(   1) = (   0.0000000   0.0000000   0.0000000  )
         2           As  tau(   2) = (   0.2500000   0.2500000   0.2500000  )

     number of k points=    63  Gaussian smearing, width (Ry)=  0.0020
                       cart. coord. in units 2pi/alat
        k(    1) = (   0.0000000   0.0000000   0.0000000), wk =   0.0080000
        k(    2) = (  -0.2000000   0.2000000  -0.2000000), wk =   0.0160000
        k(    3) = (  -0.4000000   0.4000000  -0.4000000), wk =   0.0160000
        k(    4) = (   0.2000000   0.2000000   0.2000000), wk =   0.0160000
        k(    5) = (   0.0000000   0.4000000   0.0000000), wk =   0.0160000
        k(    6) = (  -0.2000000   0.6000000  -0.2000000), wk =   0.0160000
        k(    7) = (   0.6000000  -0.2000000   0.6000000), wk =   0.0160000
        k(    8) = (   0.4000000   0.0000000   0.4000000), wk =   0.0160000
        k(    9) = (   0.4000000   0.4000000   0.4000000), wk =   0.0160000
        k(   10) = (   0.2000000   0.6000000   0.2000000), wk =   0.0160000
        k(   11) = (   0.0000000   0.8000000   0.0000000), wk =   0.0160000
        k(   12) = (   0.8000000   0.0000000   0.8000000), wk =   0.0160000
        k(   13) = (   0.6000000   0.2000000   0.6000000), wk =   0.0160000
        k(   14) = (  -0.2000000  -0.2000000   0.2000000), wk =   0.0160000
        k(   15) = (  -0.4000000   0.0000000   0.0000000), wk =   0.0160000
        k(   16) = (  -0.6000000   0.2000000  -0.2000000), wk =   0.0160000
        k(   17) = (   0.2000000  -0.6000000   0.6000000), wk =   0.0160000
        k(   18) = (  -0.0000000  -0.4000000   0.4000000), wk =   0.0160000
        k(   19) = (   0.0000000   0.0000000   0.4000000), wk =   0.0160000
        k(   20) = (  -0.2000000   0.2000000   0.2000000), wk =   0.0160000
        k(   21) = (  -0.4000000   0.4000000   0.0000000), wk =   0.0160000
        k(   22) = (   0.4000000  -0.4000000   0.8000000), wk =   0.0160000
        k(   23) = (   0.2000000  -0.2000000   0.6000000), wk =   0.0160000
        k(   24) = (   0.2000000   0.2000000   0.6000000), wk =   0.0160000
        k(   25) = (   0.0000000   0.4000000   0.4000000), wk =   0.0160000
        k(   26) = (  -0.2000000   0.6000000   0.2000000), wk =   0.0160000
        k(   27) = (   0.6000000  -0.2000000   1.0000000), wk =   0.0160000
        k(   28) = (   0.4000000   0.0000000   0.8000000), wk =   0.0160000
        k(   29) = (  -0.6000000  -0.6000000  -0.2000000), wk =   0.0160000
        k(   30) = (  -0.8000000  -0.4000000  -0.4000000), wk =   0.0160000
        k(   31) = (  -1.0000000  -0.2000000  -0.6000000), wk =   0.0160000
        k(   32) = (  -0.2000000  -1.0000000   0.2000000), wk =   0.0160000
        k(   33) = (  -0.4000000  -0.8000000  -0.0000000), wk =   0.0160000
        k(   34) = (  -0.4000000  -0.4000000   0.0000000), wk =   0.0160000
        k(   35) = (  -0.6000000  -0.2000000  -0.2000000), wk =   0.0160000
        k(   36) = (  -0.8000000   0.0000000  -0.4000000), wk =   0.0160000
        k(   37) = (   0.0000000  -0.8000000   0.4000000), wk =   0.0160000
        k(   38) = (  -0.2000000  -0.6000000   0.2000000), wk =   0.0160000
        k(   39) = (  -0.4000000  -0.4000000   0.4000000), wk =   0.0160000
        k(   40) = (  -0.6000000  -0.2000000   0.2000000), wk =   0.0160000
        k(   41) = (  -0.8000000   0.0000000   0.0000000), wk =   0.0160000
        k(   42) = (   0.0000000  -0.8000000   0.8000000), wk =   0.0160000
        k(   43) = (  -0.2000000  -0.6000000   0.6000000), wk =   0.0160000
        k(   44) = (  -0.2000000  -0.2000000   0.6000000), wk =   0.0160000
        k(   45) = (  -0.4000000   0.0000000   0.4000000), wk =   0.0160000
        k(   46) = (  -0.6000000   0.2000000   0.2000000), wk =   0.0160000
        k(   47) = (   0.2000000  -0.6000000   1.0000000), wk =   0.0160000
        k(   48) = (  -0.0000000  -0.4000000   0.8000000), wk =   0.0160000
        k(   49) = (   0.0000000   0.0000000   0.8000000), wk =   0.0160000
        k(   50) = (  -0.2000000   0.2000000   0.6000000), wk =   0.0160000
        k(   51) = (  -0.4000000   0.4000000   0.4000000), wk =   0.0160000
        k(   52) = (   0.4000000  -0.4000000   1.2000000), wk =   0.0160000
        k(   53) = (   0.2000000  -0.2000000   1.0000000), wk =   0.0160000
        k(   54) = (  -0.8000000  -0.8000000   0.0000000), wk =   0.0160000
        k(   55) = (  -1.0000000  -0.6000000  -0.2000000), wk =   0.0160000
        k(   56) = (  -1.2000000  -0.4000000  -0.4000000), wk =   0.0160000
        k(   57) = (  -0.4000000  -1.2000000   0.4000000), wk =   0.0160000
        k(   58) = (  -0.6000000  -1.0000000   0.2000000), wk =   0.0160000
        k(   59) = (  -0.6000000  -0.6000000   0.2000000), wk =   0.0160000
        k(   60) = (  -0.8000000  -0.4000000   0.0000000), wk =   0.0160000
        k(   61) = (  -1.0000000  -0.2000000  -0.2000000), wk =   0.0160000
        k(   62) = (  -0.2000000  -1.0000000   0.6000000), wk =   0.0160000
        k(   63) = (  -0.4000000  -0.8000000   0.4000000), wk =   0.0160000

     Dense  grid:    44039 G-vectors     FFT dimensions: (  50,  50,  50)

     Smooth grid:    15593 G-vectors     FFT dimensions: (  36,  36,  36)

     Estimated max dynamical RAM per process >     601.73 MB

     Initial potential from superposition of free atoms

     starting charge      17.9971, renormalised to      18.0000
     Starting wfcs are   26 randomized atomic wfcs

     total cpu time spent up to now is        5.0 secs

     Self-consistent Calculation

     iteration #  1     ecut=    50.00 Ry     beta= 0.30
     Davidson diagonalization with overlap
     ethr =  1.00E-02,  avg # of iterations =  3.9

     Threshold (ethr) on eigenvalues was too large:
     Diagonalizing with lowered threshold

     Davidson diagonalization with overlap
     ethr =  2.63E-04,  avg # of iterations =  2.3

     total cpu time spent up to now is       28.7 secs

     total energy              =    -190.99970915 Ry
     estimated scf accuracy    <       0.04720897 Ry

     iteration #  2     ecut=    50.00 Ry     beta= 0.30
     Davidson diagonalization with overlap
     ethr =  2.62E-04,  avg # of iterations =  1.1

     total cpu time spent up to now is       38.4 secs

     total energy              =    -191.00053859 Ry
     estimated scf accuracy    <       0.01259372 Ry

     iteration #  3     ecut=    50.00 Ry     beta= 0.30
     Davidson diagonalization with overlap
     ethr =  7.00E-05,  avg # of iterations =  1.8

     total cpu time spent up to now is       48.0 secs

     total energy              =    -191.00116839 Ry
     estimated scf accuracy    <       0.00240325 Ry

     iteration #  4     ecut=    50.00 Ry     beta= 0.30
     Davidson diagonalization with overlap
     ethr =  1.34E-05,  avg # of iterations =  2.2

     total cpu time spent up to now is       57.5 secs

     total energy              =    -191.00126886 Ry
     estimated scf accuracy    <       0.00004504 Ry

     iteration #  5     ecut=    50.00 Ry     beta= 0.30
     Davidson diagonalization with overlap
     ethr =  2.50E-07,  avg # of iterations =  2.7

     total cpu time spent up to now is       70.1 secs

     total energy              =    -191.00128118 Ry
     estimated scf accuracy    <       0.00000712 Ry

     iteration #  6     ecut=    50.00 Ry     beta= 0.30
     Davidson diagonalization with overlap
     ethr =  3.96E-08,  avg # of iterations =  2.0

     total cpu time spent up to now is       81.7 secs

     total energy              =    -191.00128245 Ry
     estimated scf accuracy    <       0.00000255 Ry

     iteration #  7     ecut=    50.00 Ry     beta= 0.30
     Davidson diagonalization with overlap
     ethr =  1.42E-08,  avg # of iterations =  2.0

     total cpu time spent up to now is       92.5 secs

     total energy              =    -191.00128316 Ry
     estimated scf accuracy    <       0.00000026 Ry

     iteration #  8     ecut=    50.00 Ry     beta= 0.30
     Davidson diagonalization with overlap
     ethr =  1.45E-09,  avg # of iterations =  2.0

     total cpu time spent up to now is      102.3 secs

     total energy              =    -191.00128317 Ry
     estimated scf accuracy    <       0.00000016 Ry

     iteration #  9     ecut=    50.00 Ry     beta= 0.30
     Davidson diagonalization with overlap
     ethr =  8.62E-10,  avg # of iterations =  1.0

     total cpu time spent up to now is      111.5 secs

     total energy              =    -191.00128310 Ry
     estimated scf accuracy    <       0.00000009 Ry

     iteration # 10     ecut=    50.00 Ry     beta= 0.30
     Davidson diagonalization with overlap
     ethr =  4.97E-10,  avg # of iterations =  2.0

     total cpu time spent up to now is      123.0 secs

     total energy              =    -191.00128313 Ry
     estimated scf accuracy    <       0.00000005 Ry

     iteration # 11     ecut=    50.00 Ry     beta= 0.30
     Davidson diagonalization with overlap
     ethr =  2.57E-10,  avg # of iterations =  2.0

     total cpu time spent up to now is      133.6 secs

     End of self-consistent calculation

          k = 0.0000 0.0000 0.0000 (  1917 PWs)   bands (ev):

    -8.9303  -8.9303  -8.9303  -8.9303  -8.4986  -8.4986  -8.4559  -8.4559
    -8.4559  -8.4559  -6.2579  -6.2579   5.8038   5.8038   6.0671   6.0671
     6.1300   6.1300   6.1300   6.1300   9.5900   9.5900   9.7794   9.7794
     9.7794   9.7794

          k =-0.2000 0.2000-0.2000 (  1943 PWs)   bands (ev):

    -8.9354  -8.9354  -8.9312  -8.9266  -8.5020  -8.5020  -8.4634  -8.4634
    -8.4533  -8.4481  -5.8460  -5.8460   2.7678   2.7678   5.4587   5.4587
     5.6648   5.6680   7.3643   7.3643  10.3042  10.3042  10.4358  10.4379
    10.9411  10.9411

          k =-0.4000 0.4000-0.4000 (  1937 PWs)   bands (ev):

    -8.9442  -8.9442  -8.9282  -8.9255  -8.5060  -8.5060  -8.4722  -8.4722
    -8.4434  -8.4403  -4.9152  -4.9152   0.1541   0.1541   4.9420   4.9420
     5.1425   5.1442   6.9149   6.9149  10.5926  10.5926  10.6935  10.6946
    13.6110  13.6110

          k = 0.2000 0.2000 0.2000 (  1943 PWs)   bands (ev):

    -8.9354  -8.9354  -8.9312  -8.9266  -8.5020  -8.5020  -8.4634  -8.4634
    -8.4533  -8.4481  -5.8460  -5.8460   2.7678   2.7678   5.4587   5.4587
     5.6648   5.6680   7.3643   7.3643  10.3042  10.3042  10.4358  10.4379
    10.9411  10.9411

          k = 0.0000 0.4000 0.0000 (  1956 PWs)   bands (ev):

    -8.9411  -8.9411  -8.9240  -8.9240  -8.5052  -8.5052  -8.4564  -8.4564
    -8.4547  -8.4547  -5.7067  -5.7067   2.7253   2.7253   4.7750   4.7750
     4.9011   4.9011   8.3030   8.3030   9.0616   9.0616  11.6223  11.6223
    11.6452  11.6452

          k =-0.2000 0.6000-0.2000 (  1958 PWs)   bands (ev):

    -8.9593  -8.9411  -8.9222  -8.9167  -8.5269  -8.4948  -8.4640  -8.4609
    -8.4461  -8.4455  -4.9088  -4.9064   0.6923   0.7169   3.7338   3.7850
     4.3491   4.3567   8.3187   8.3432   9.9179   9.9644  11.6759  11.7151
    12.3181  12.3199

          k = 0.6000-0.2000 0.6000 (  1941 PWs)   bands (ev):

    -8.9664  -8.9407  -8.9207  -8.9137  -8.5363  -8.4838  -8.4746  -8.4628
    -8.4429  -8.4414  -4.4517  -4.4498  -0.1617  -0.1274   3.0200   3.0739
     4.5657   4.5674   8.3224   8.3525  10.7228  10.7546  11.7861  11.7866
    13.4359  13.4495

          k = 0.4000 0.0000 0.4000 (  1947 PWs)   bands (ev):

    -8.9538  -8.9390  -8.9226  -8.9201  -8.5235  -8.4899  -8.4712  -8.4615
    -8.4479  -8.4455  -5.2353  -5.2320   1.3127   1.3486   3.5506   3.6134
     5.3040   5.3046   8.4756   8.5363  10.7756  10.8215  10.8836  10.8841
    11.5121  11.5372

          k = 0.4000 0.4000 0.4000 (  1937 PWs)   bands (ev):

    -8.9442  -8.9442  -8.9282  -8.9255  -8.5060  -8.5060  -8.4722  -8.4722
    -8.4434  -8.4403  -4.9152  -4.9152   0.1541   0.1541   4.9420   4.9420
     5.1425   5.1442   6.9149   6.9149  10.5926  10.5926  10.6935  10.6946
    13.6110  13.6110

          k = 0.2000 0.6000 0.2000 (  1958 PWs)   bands (ev):

    -8.9593  -8.9411  -8.9222  -8.9167  -8.5269  -8.4948  -8.4640  -8.4609
    -8.4461  -8.4455  -4.9088  -4.9064   0.6923   0.7169   3.7338   3.7850
     4.3491   4.3567   8.3187   8.3432   9.9179   9.9644  11.6759  11.7151
    12.3181  12.3199

          k = 0.0000 0.8000 0.0000 (  1964 PWs)   bands (ev):

    -8.9576  -8.9576  -8.9149  -8.9149  -8.5163  -8.5163  -8.4544  -8.4544
    -8.4446  -8.4446  -4.3938  -4.3938   0.0227   0.0227   3.6636   3.6636
     3.7518   3.7518   7.5131   7.5131   8.1407   8.1407  14.7323  14.7323
    14.7971  14.7971

          k = 0.8000 0.0000 0.8000 (  1930 PWs)   bands (ev):

    -8.9724  -8.9463  -8.9161  -8.9090  -8.5401  -8.4946  -8.4572  -8.4545
    -8.4486  -8.4397  -4.0330  -4.0322  -0.4316  -0.3932   2.6396   2.6923
     3.8068   3.8102   7.8714   7.8757   9.6597   9.7073  14.0310  14.0755
    14.3111  14.3165

          k = 0.6000 0.2000 0.6000 (  1941 PWs)   bands (ev):

    -8.9664  -8.9407  -8.9207  -8.9137  -8.5363  -8.4838  -8.4746  -8.4628
    -8.4429  -8.4414  -4.4517  -4.4498  -0.1617  -0.1274   3.0200   3.0739
     4.5657   4.5674   8.3224   8.3525  10.7228  10.7546  11.7861  11.7866
    13.4359  13.4495

          k =-0.2000-0.2000 0.2000 (  1943 PWs)   bands (ev):

    -8.9354  -8.9354  -8.9312  -8.9266  -8.5020  -8.5020  -8.4634  -8.4634
    -8.4533  -8.4481  -5.8460  -5.8460   2.7678   2.7678   5.4587   5.4587
     5.6648   5.6680   7.3643   7.3643  10.3042  10.3042  10.4358  10.4379
    10.9411  10.9411

          k =-0.4000 0.0000 0.0000 (  1956 PWs)   bands (ev):

    -8.9411  -8.9411  -8.9240  -8.9240  -8.5052  -8.5052  -8.4564  -8.4564
    -8.4547  -8.4547  -5.7067  -5.7067   2.7253   2.7253   4.7750   4.7750
     4.9011   4.9011   8.3030   8.3030   9.0616   9.0616  11.6223  11.6223
    11.6452  11.6452

          k =-0.6000 0.2000-0.2000 (  1958 PWs)   bands (ev):

    -8.9593  -8.9411  -8.9222  -8.9167  -8.5269  -8.4948  -8.4640  -8.4609
    -8.4461  -8.4455  -4.9088  -4.9064   0.6923   0.7169   3.7338   3.7850
     4.3491   4.3567   8.3187   8.3432   9.9179   9.9644  11.6759  11.7151
    12.3181  12.3199

          k = 0.2000-0.6000 0.6000 (  1941 PWs)   bands (ev):

    -8.9664  -8.9407  -8.9207  -8.9137  -8.5363  -8.4838  -8.4746  -8.4628
    -8.4429  -8.4414  -4.4517  -4.4498  -0.1617  -0.1274   3.0200   3.0739
     4.5657   4.5674   8.3224   8.3525  10.7228  10.7546  11.7861  11.7866
    13.4359  13.4495

          k =-0.0000-0.4000 0.4000 (  1947 PWs)   bands (ev):

    -8.9538  -8.9390  -8.9226  -8.9201  -8.5235  -8.4899  -8.4712  -8.4615
    -8.4479  -8.4455  -5.2353  -5.2320   1.3127   1.3486   3.5506   3.6134
     5.3040   5.3046   8.4756   8.5363  10.7756  10.8215  10.8836  10.8841
    11.5121  11.5372

          k = 0.0000 0.0000 0.4000 (  1956 PWs)   bands (ev):

    -8.9411  -8.9411  -8.9240  -8.9240  -8.5052  -8.5052  -8.4564  -8.4564
    -8.4547  -8.4547  -5.7067  -5.7067   2.7253   2.7253   4.7750   4.7750
     4.9011   4.9011   8.3030   8.3030   9.0616   9.0616  11.6223  11.6223
    11.6452  11.6452

          k =-0.2000 0.2000 0.2000 (  1943 PWs)   bands (ev):

    -8.9354  -8.9354  -8.9312  -8.9266  -8.5020  -8.5020  -8.4634  -8.4634
    -8.4533  -8.4481  -5.8460  -5.8460   2.7678   2.7678   5.4587   5.4587
     5.6648   5.6680   7.3643   7.3643  10.3042  10.3042  10.4358  10.4379
    10.9411  10.9411

          k =-0.4000 0.4000 0.0000 (  1947 PWs)   bands (ev):

    -8.9538  -8.9390  -8.9226  -8.9201  -8.5235  -8.4899  -8.4712  -8.4615
    -8.4479  -8.4455  -5.2353  -5.2320   1.3127   1.3486   3.5506   3.6134
     5.3040   5.3046   8.4756   8.5363  10.7756  10.8215  10.8836  10.8841
    11.5121  11.5372

          k = 0.4000-0.4000 0.8000 (  1941 PWs)   bands (ev):

    -8.9664  -8.9407  -8.9207  -8.9137  -8.5363  -8.4838  -8.4746  -8.4628
    -8.4429  -8.4414  -4.4517  -4.4498  -0.1617  -0.1274   3.0200   3.0739
     4.5657   4.5674   8.3224   8.3525  10.7228  10.7546  11.7861  11.7866
    13.4359  13.4495

          k = 0.2000-0.2000 0.6000 (  1958 PWs)   bands (ev):

    -8.9593  -8.9411  -8.9222  -8.9167  -8.5269  -8.4948  -8.4640  -8.4609
    -8.4461  -8.4455  -4.9088  -4.9064   0.6923   0.7169   3.7338   3.7850
     4.3491   4.3567   8.3187   8.3432   9.9179   9.9644  11.6759  11.7151
    12.3181  12.3199

          k = 0.2000 0.2000 0.6000 (  1958 PWs)   bands (ev):

    -8.9593  -8.9411  -8.9222  -8.9167  -8.5269  -8.4948  -8.4640  -8.4609
    -8.4461  -8.4455  -4.9088  -4.9064   0.6923   0.7169   3.7338   3.7850
     4.3491   4.3567   8.3187   8.3432   9.9179   9.9644  11.6759  11.7151
    12.3181  12.3199

          k = 0.0000 0.4000 0.4000 (  1947 PWs)   bands (ev):

    -8.9538  -8.9390  -8.9226  -8.9201  -8.5235  -8.4899  -8.4712  -8.4615
    -8.4479  -8.4455  -5.2353  -5.2320   1.3127   1.3486   3.5506   3.6134
     5.3040   5.3046   8.4756   8.5363  10.7756  10.8215  10.8836  10.8841
    11.5121  11.5372

          k =-0.2000 0.6000 0.2000 (  1958 PWs)   bands (ev):

    -8.9593  -8.9411  -8.9222  -8.9167  -8.5269  -8.4948  -8.4640  -8.4609
    -8.4461  -8.4455  -4.9088  -4.9064   0.6923   0.7169   3.7338   3.7850
     4.3491   4.3567   8.3187   8.3432   9.9179   9.9644  11.6759  11.7151
    12.3181  12.3199

          k = 0.6000-0.2000 1.0000 (  1928 PWs)   bands (ev):

    -8.9730  -8.9418  -8.9164  -8.9100  -8.5447  -8.4836  -8.4659  -8.4577
    -8.4454  -8.4422  -4.2223  -4.2216  -0.1471  -0.1004   2.6812   2.7548
     3.5673   3.6080   9.6496   9.7874  10.0761  10.1156  11.0797  11.1409
    13.8844  13.9067

          k = 0.4000 0.0000 0.8000 (  1928 PWs)   bands (ev):

    -8.9730  -8.9418  -8.9164  -8.9100  -8.5447  -8.4836  -8.4659  -8.4577
    -8.4454  -8.4422  -4.2223  -4.2216  -0.1471  -0.1004   2.6812   2.7548
     3.5673   3.6080   9.6496   9.7874  10.0761  10.1156  11.0797  11.1409
    13.8844  13.9067

          k =-0.6000-0.6000-0.2000 (  1941 PWs)   bands (ev):

    -8.9664  -8.9407  -8.9207  -8.9137  -8.5363  -8.4838  -8.4746  -8.4628
    -8.4429  -8.4414  -4.4517  -4.4498  -0.1617  -0.1274   3.0200   3.0739
     4.5657   4.5674   8.3224   8.3525  10.7228  10.7546  11.7861  11.7866
    13.4359  13.4495

          k =-0.8000-0.4000-0.4000 (  1941 PWs)   bands (ev):

    -8.9664  -8.9407  -8.9207  -8.9137  -8.5363  -8.4838  -8.4746  -8.4628
    -8.4429  -8.4414  -4.4517  -4.4498  -0.1617  -0.1274   3.0200   3.0739
     4.5657   4.5674   8.3224   8.3525  10.7228  10.7546  11.7861  11.7866
    13.4359  13.4495

          k =-1.0000-0.2000-0.6000 (  1928 PWs)   bands (ev):

    -8.9730  -8.9418  -8.9164  -8.9100  -8.5447  -8.4836  -8.4659  -8.4577
    -8.4454  -8.4422  -4.2223  -4.2216  -0.1471  -0.1004   2.6812   2.7548
     3.5673   3.6080   9.6496   9.7874  10.0761  10.1156  11.0797  11.1409
    13.8844  13.9067

          k =-0.2000-1.0000 0.2000 (  1930 PWs)   bands (ev):

    -8.9724  -8.9463  -8.9161  -8.9090  -8.5401  -8.4946  -8.4572  -8.4545
    -8.4486  -8.4397  -4.0330  -4.0322  -0.4316  -0.3932   2.6396   2.6923
     3.8068   3.8102   7.8714   7.8757   9.6597   9.7073  14.0310  14.0755
    14.3111  14.3165

          k =-0.4000-0.8000-0.0000 (  1928 PWs)   bands (ev):

    -8.9730  -8.9418  -8.9164  -8.9100  -8.5447  -8.4836  -8.4659  -8.4577
    -8.4454  -8.4422  -4.2223  -4.2216  -0.1471  -0.1004   2.6812   2.7548
     3.5673   3.6080   9.6496   9.7874  10.0761  10.1156  11.0797  11.1409
    13.8844  13.9067

          k =-0.4000-0.4000 0.0000 (  1947 PWs)   bands (ev):

    -8.9538  -8.9390  -8.9226  -8.9201  -8.5235  -8.4899  -8.4712  -8.4615
    -8.4479  -8.4455  -5.2353  -5.2320   1.3127   1.3486   3.5506   3.6134
     5.3040   5.3046   8.4756   8.5363  10.7756  10.8215  10.8836  10.8841
    11.5121  11.5372

          k =-0.6000-0.2000-0.2000 (  1958 PWs)   bands (ev):

    -8.9593  -8.9411  -8.9222  -8.9167  -8.5269  -8.4948  -8.4640  -8.4609
    -8.4461  -8.4455  -4.9088  -4.9064   0.6923   0.7169   3.7338   3.7850
     4.3491   4.3567   8.3187   8.3432   9.9179   9.9644  11.6759  11.7151
    12.3181  12.3199

          k =-0.8000 0.0000-0.4000 (  1928 PWs)   bands (ev):

    -8.9730  -8.9418  -8.9164  -8.9100  -8.5447  -8.4836  -8.4659  -8.4577
    -8.4454  -8.4422  -4.2223  -4.2216  -0.1471  -0.1004   2.6812   2.7548
     3.5673   3.6080   9.6496   9.7874  10.0761  10.1156  11.0797  11.1409
    13.8844  13.9067

          k = 0.0000-0.8000 0.4000 (  1928 PWs)   bands (ev):

    -8.9730  -8.9418  -8.9164  -8.9100  -8.5447  -8.4836  -8.4659  -8.4577
    -8.4454  -8.4422  -4.2223  -4.2216  -0.1471  -0.1004   2.6812   2.7548
     3.5673   3.6080   9.6496   9.7874  10.0761  10.1156  11.0797  11.1409
    13.8844  13.9067

          k =-0.2000-0.6000 0.2000 (  1958 PWs)   bands (ev):

    -8.9593  -8.9411  -8.9222  -8.9167  -8.5269  -8.4948  -8.4640  -8.4609
    -8.4461  -8.4455  -4.9088  -4.9064   0.6923   0.7169   3.7338   3.7850
     4.3491   4.3567   8.3187   8.3432   9.9179   9.9644  11.6759  11.7151
    12.3181  12.3199

          k =-0.4000-0.4000 0.4000 (  1937 PWs)   bands (ev):

    -8.9442  -8.9442  -8.9282  -8.9255  -8.5060  -8.5060  -8.4722  -8.4722
    -8.4434  -8.4403  -4.9152  -4.9152   0.1541   0.1541   4.9420   4.9420
     5.1425   5.1442   6.9149   6.9149  10.5926  10.5926  10.6935  10.6946
    13.6110  13.6110

          k =-0.6000-0.2000 0.2000 (  1958 PWs)   bands (ev):

    -8.9593  -8.9411  -8.9222  -8.9167  -8.5269  -8.4948  -8.4640  -8.4609
    -8.4461  -8.4455  -4.9088  -4.9064   0.6923   0.7169   3.7338   3.7850
     4.3491   4.3567   8.3187   8.3432   9.9179   9.9644  11.6759  11.7151
    12.3181  12.3199

          k =-0.8000 0.0000 0.0000 (  1964 PWs)   bands (ev):

    -8.9576  -8.9576  -8.9149  -8.9149  -8.5163  -8.5163  -8.4544  -8.4544
    -8.4446  -8.4446  -4.3938  -4.3938   0.0227   0.0227   3.6636   3.6636
     3.7518   3.7518   7.5131   7.5131   8.1407   8.1407  14.7323  14.7323
    14.7971  14.7971

          k = 0.0000-0.8000 0.8000 (  1930 PWs)   bands (ev):

    -8.9724  -8.9463  -8.9161  -8.9090  -8.5401  -8.4946  -8.4572  -8.4545
    -8.4486  -8.4397  -4.0330  -4.0322  -0.4316  -0.3932   2.6396   2.6923
     3.8068   3.8102   7.8714   7.8757   9.6597   9.7073  14.0310  14.0755
    14.3111  14.3165

          k =-0.2000-0.6000 0.6000 (  1941 PWs)   bands (ev):

    -8.9664  -8.9407  -8.9207  -8.9137  -8.5363  -8.4838  -8.4746  -8.4628
    -8.4429  -8.4414  -4.4517  -4.4498  -0.1617  -0.1274   3.0200   3.0739
     4.5657   4.5674   8.3224   8.3525  10.7228  10.7546  11.7861  11.7866
    13.4359  13.4495

          k =-0.2000-0.2000 0.6000 (  1958 PWs)   bands (ev):

    -8.9593  -8.9411  -8.9222  -8.9167  -8.5269  -8.4948  -8.4640  -8.4609
    -8.4461  -8.4455  -4.9088  -4.9064   0.6923   0.7169   3.7338   3.7850
     4.3491   4.3567   8.3187   8.3432   9.9179   9.9644  11.6759  11.7151
    12.3181  12.3199

          k =-0.4000 0.0000 0.4000 (  1947 PWs)   bands (ev):

    -8.9538  -8.9390  -8.9226  -8.9201  -8.5235  -8.4899  -8.4712  -8.4615
    -8.4479  -8.4455  -5.2353  -5.2320   1.3127   1.3486   3.5506   3.6134
     5.3040   5.3046   8.4756   8.5363  10.7756  10.8215  10.8836  10.8841
    11.5121  11.5372

          k =-0.6000 0.2000 0.2000 (  1958 PWs)   bands (ev):

    -8.9593  -8.9411  -8.9222  -8.9167  -8.5269  -8.4948  -8.4640  -8.4609
    -8.4461  -8.4455  -4.9088  -4.9064   0.6923   0.7169   3.7338   3.7850
     4.3491   4.3567   8.3187   8.3432   9.9179   9.9644  11.6759  11.7151
    12.3181  12.3199

          k = 0.2000-0.6000 1.0000 (  1928 PWs)   bands (ev):

    -8.9730  -8.9418  -8.9164  -8.9100  -8.5447  -8.4836  -8.4659  -8.4577
    -8.4454  -8.4422  -4.2223  -4.2216  -0.1471  -0.1004   2.6812   2.7548
     3.5673   3.6080   9.6496   9.7874  10.0761  10.1156  11.0797  11.1409
    13.8844  13.9067

          k =-0.0000-0.4000 0.8000 (  1928 PWs)   bands (ev):

    -8.9730  -8.9418  -8.9164  -8.9100  -8.5447  -8.4836  -8.4659  -8.4577
    -8.4454  -8.4422  -4.2223  -4.2216  -0.1471  -0.1004   2.6812   2.7548
     3.5673   3.6080   9.6496   9.7874  10.0761  10.1156  11.0797  11.1409
    13.8844  13.9067

          k = 0.0000 0.0000 0.8000 (  1964 PWs)   bands (ev):

    -8.9576  -8.9576  -8.9149  -8.9149  -8.5163  -8.5163  -8.4544  -8.4544
    -8.4446  -8.4446  -4.3938  -4.3938   0.0227   0.0227   3.6636   3.6636
     3.7518   3.7518   7.5131   7.5131   8.1407   8.1407  14.7323  14.7323
    14.7971  14.7971

          k =-0.2000 0.2000 0.6000 (  1958 PWs)   bands (ev):

    -8.9593  -8.9411  -8.9222  -8.9167  -8.5269  -8.4948  -8.4640  -8.4609
    -8.4461  -8.4455  -4.9088  -4.9064   0.6923   0.7169   3.7338   3.7850
     4.3491   4.3567   8.3187   8.3432   9.9179   9.9644  11.6759  11.7151
    12.3181  12.3199

          k =-0.4000 0.4000 0.4000 (  1937 PWs)   bands (ev):

    -8.9442  -8.9442  -8.9282  -8.9255  -8.5060  -8.5060  -8.4722  -8.4722
    -8.4434  -8.4403  -4.9152  -4.9152   0.1541   0.1541   4.9420   4.9420
     5.1425   5.1442   6.9149   6.9149  10.5926  10.5926  10.6935  10.6946
    13.6110  13.6110

          k = 0.4000-0.4000 1.2000 (  1941 PWs)   bands (ev):

    -8.9664  -8.9407  -8.9207  -8.9137  -8.5363  -8.4838  -8.4746  -8.4628
    -8.4429  -8.4414  -4.4517  -4.4498  -0.1617  -0.1274   3.0200   3.0739
     4.5657   4.5674   8.3224   8.3525  10.7228  10.7546  11.7861  11.7866
    13.4359  13.4495

          k = 0.2000-0.2000 1.0000 (  1930 PWs)   bands (ev):

    -8.9724  -8.9463  -8.9161  -8.9090  -8.5401  -8.4946  -8.4572  -8.4545
    -8.4486  -8.4397  -4.0330  -4.0322  -0.4316  -0.3932   2.6396   2.6923
     3.8068   3.8102   7.8714   7.8757   9.6597   9.7073  14.0310  14.0755
    14.3111  14.3165

          k =-0.8000-0.8000 0.0000 (  1930 PWs)   bands (ev):

    -8.9724  -8.9463  -8.9161  -8.9090  -8.5401  -8.4946  -8.4572  -8.4545
    -8.4486  -8.4397  -4.0330  -4.0322  -0.4316  -0.3932   2.6396   2.6923
     3.8068   3.8102   7.8714   7.8757   9.6597   9.7073  14.0310  14.0755
    14.3111  14.3165

          k =-1.0000-0.6000-0.2000 (  1928 PWs)   bands (ev):

    -8.9730  -8.9418  -8.9164  -8.9100  -8.5447  -8.4836  -8.4659  -8.4577
    -8.4454  -8.4422  -4.2223  -4.2216  -0.1471  -0.1004   2.6812   2.7548
     3.5673   3.6080   9.6496   9.7874  10.0761  10.1156  11.0797  11.1409
    13.8844  13.9067

          k =-1.2000-0.4000-0.4000 (  1941 PWs)   bands (ev):

    -8.9664  -8.9407  -8.9207  -8.9137  -8.5363  -8.4838  -8.4746  -8.4628
    -8.4429  -8.4414  -4.4517  -4.4498  -0.1617  -0.1274   3.0200   3.0739
     4.5657   4.5674   8.3224   8.3525  10.7228  10.7546  11.7861  11.7866
    13.4359  13.4495

          k =-0.4000-1.2000 0.4000 (  1941 PWs)   bands (ev):

    -8.9664  -8.9407  -8.9207  -8.9137  -8.5363  -8.4838  -8.4746  -8.4628
    -8.4429  -8.4414  -4.4517  -4.4498  -0.1617  -0.1274   3.0200   3.0739
     4.5657   4.5674   8.3224   8.3525  10.7228  10.7546  11.7861  11.7866
    13.4359  13.4495

          k =-0.6000-1.0000 0.2000 (  1928 PWs)   bands (ev):

    -8.9730  -8.9418  -8.9164  -8.9100  -8.5447  -8.4836  -8.4659  -8.4577
    -8.4454  -8.4422  -4.2223  -4.2216  -0.1471  -0.1004   2.6812   2.7548
     3.5673   3.6080   9.6496   9.7874  10.0761  10.1156  11.0797  11.1409
    13.8844  13.9067

          k =-0.6000-0.6000 0.2000 (  1941 PWs)   bands (ev):

    -8.9664  -8.9407  -8.9207  -8.9137  -8.5363  -8.4838  -8.4746  -8.4628
    -8.4429  -8.4414  -4.4517  -4.4498  -0.1617  -0.1274   3.0200   3.0739
     4.5657   4.5674   8.3224   8.3525  10.7228  10.7546  11.7861  11.7866
    13.4359  13.4495

          k =-0.8000-0.4000 0.0000 (  1928 PWs)   bands (ev):

    -8.9730  -8.9418  -8.9164  -8.9100  -8.5447  -8.4836  -8.4659  -8.4577
    -8.4454  -8.4422  -4.2223  -4.2216  -0.1471  -0.1004   2.6812   2.7548
     3.5673   3.6080   9.6496   9.7874  10.0761  10.1156  11.0797  11.1409
    13.8844  13.9067

          k =-1.0000-0.2000-0.2000 (  1930 PWs)   bands (ev):

    -8.9724  -8.9463  -8.9161  -8.9090  -8.5401  -8.4946  -8.4572  -8.4545
    -8.4486  -8.4397  -4.0330  -4.0322  -0.4316  -0.3932   2.6396   2.6923
     3.8068   3.8102   7.8714   7.8757   9.6597   9.7073  14.0310  14.0755
    14.3111  14.3165

          k =-0.2000-1.0000 0.6000 (  1928 PWs)   bands (ev):

    -8.9730  -8.9418  -8.9164  -8.9100  -8.5447  -8.4836  -8.4659  -8.4577
    -8.4454  -8.4422  -4.2223  -4.2216  -0.1471  -0.1004   2.6812   2.7548
     3.5673   3.6080   9.6496   9.7874  10.0761  10.1156  11.0797  11.1409
    13.8844  13.9067

          k =-0.4000-0.8000 0.4000 (  1941 PWs)   bands (ev):

    -8.9664  -8.9407  -8.9207  -8.9137  -8.5363  -8.4838  -8.4746  -8.4628
    -8.4429  -8.4414  -4.4517  -4.4498  -0.1617  -0.1274   3.0200   3.0739
     4.5657   4.5674   8.3224   8.3525  10.7228  10.7546  11.7861  11.7866
    13.4359  13.4495

     the Fermi energy is     6.1300 ev

!    total energy              =    -191.00128314 Ry
     estimated scf accuracy    <          9.8E-10 Ry
     smearing contrib. (-TS)   =      -0.00001810 Ry
     internal energy E=F+TS    =    -191.00126504 Ry

     The total energy is F=E-TS. E is the sum of the following terms:
     one-electron contribution =    -115.01158655 Ry
     hartree contribution      =      72.86454503 Ry
     xc contribution           =     -57.84971928 Ry
     ewald contribution        =     -91.00450424 Ry

     convergence has been achieved in  11 iterations

     Writing all to output data dir ./GaAs.save/

     init_run     :     18.13s CPU      4.62s WALL (       1 calls)
     electrons    :    591.89s CPU    128.62s WALL (       1 calls)

     Called by init_run:
     wfcinit      :     16.40s CPU      3.70s WALL (       1 calls)
     potinit      :      0.04s CPU      0.05s WALL (       1 calls)
     hinit0       :      0.61s CPU      0.61s WALL (       1 calls)

     Called by electrons:
     c_bands      :    475.28s CPU    103.35s WALL (      12 calls)
     sum_band     :    105.07s CPU     22.34s WALL (      12 calls)
     v_of_rho     :      1.59s CPU      0.51s WALL (      12 calls)
     newd         :      9.73s CPU      2.30s WALL (      12 calls)
     mix_rho      :      0.79s CPU      0.21s WALL (      12 calls)

     Called by c_bands:
     init_us_2    :      6.29s CPU      0.92s WALL (    1575 calls)
     init_us_2:cp :      6.27s CPU      0.92s WALL (    1575 calls)
     cegterg      :    438.44s CPU     97.83s WALL (     756 calls)

     Called by *egterg:
     cdiaghg      :     11.10s CPU      1.48s WALL (    2266 calls)
     h_psi        :    369.76s CPU     88.69s WALL (    2392 calls)
     s_psi        :      8.38s CPU      1.65s WALL (    2392 calls)
     g_psi        :      1.77s CPU      0.33s WALL (    1573 calls)

     Called by h_psi:
     h_psi:calbec :     10.79s CPU      2.75s WALL (    2392 calls)
     vloc_psi     :    350.39s CPU     83.97s WALL (    2392 calls)
     add_vuspsi   :      6.88s CPU      1.62s WALL (    2392 calls)

     General routines
     calbec       :     16.15s CPU      3.93s WALL (    3148 calls)
     fft          :      1.62s CPU      0.49s WALL (     290 calls)
     ffts         :      0.21s CPU      0.06s WALL (      96 calls)
     fftw         :    343.29s CPU     80.04s WALL (  229192 calls)
     interpolate  :      0.36s CPU      0.14s WALL (      48 calls)


     PWSCF        :  10m11.90s CPU   2m13.71s WALL


   This run was terminated on:  18:51:55  12May2024            

=------------------------------------------------------------------------------=
   JOB DONE.
=------------------------------------------------------------------------------=
