
     Program BANDS v.7.2 starts on 12May2024 at 21:32:18 

     This program is part of the open-source Quantum ESPRESSO suite
     for quantum simulation of materials; please cite
         "P. Giannozzi et al., J. Phys.:Condens. Matter 21 395502 (2009);
         "P. Giannozzi et al., J. Phys.:Condens. Matter 29 465901 (2017);
         "P. Giannozzi et al., J. Chem. Phys. 152 154105 (2020);
          URL http://www.quantum-espresso.org", 
     in publications or presentations arising from this work. More details at
     http://www.quantum-espresso.org/quote

     Serial version
     0 MiB available memory on the printing compute node when the environment starts


     Reading xml data from directory:

     ../output/GaAs.save/
     file Ga.rel-pbe-dn-rrkjus_psl.0.2.UPF: wavefunction(s)  4S 3D 3D renormalized

     IMPORTANT: XC functional enforced from input :
     Exchange-correlation= PBE
                           (   1   4   3   4   0   0   0)
     Any further DFT definition will be discarded
     Please, verify this is what you really want


     G-vector sticks info
     --------------------
     sticks:   dense  smooth     PW     G-vecs:    dense   smooth      PW
     Sum        1639     817    241                43599    15353    2445

     Using Slab Decomposition

     Reading collected, re-writing distributed wavefunctions
     high-symmetry point: -0.5000 0.5000 0.5000   x coordinate   0.0000
     high-symmetry point:  0.0000 0.0000 0.0000   x coordinate   0.8660
     high-symmetry point: -1.0000 0.0000 0.0000   x coordinate   1.8660
     high-symmetry point: -0.7500 0.7500 0.0000   x coordinate   2.6566
     high-symmetry point:  0.0000 0.0000 0.0000   x coordinate   3.7173

     Plottable bands (eV) written to file bands.dat.gnu
     Bands written to file bands.dat

 **************************************************************************

                    xk=(  -0.50000,   0.50000,   0.50000  )

     double point group C_1 (1)    
     there are  2 classes and  1 irreducible representations
     the character table:

       E     -E   
                  
G_2    1.00 -1.00

     the symmetry operations in each class and the name of the first element:

     E             1
                                                                 
     -E           -1
                                                                 

     Band symmetry, C_1 (1)     double point group:

     e(  1 -  2) =     -8.80473  eV     2   -->   2 G_2            
     e(  3 -  4) =     -8.78393  eV     2   -->   2 G_2            
     e(  5 -  6) =     -8.36579  eV     2   -->   2 G_2            
     e(  7 -  8) =     -8.33115  eV     2   -->   2 G_2            
     e(  9 - 10) =     -8.29632  eV     2   -->   2 G_2            
     e( 11 - 12) =     -4.56996  eV     2   -->   2 G_2            
     e( 13 - 14) =     -0.19597  eV     2   -->   2 G_2            
     e( 15 - 16) =      5.02015  eV     2   -->   2 G_2            
     e( 17 - 18) =      5.22210  eV     2   -->   2 G_2            
     e( 19 - 20) =      7.04849  eV     2   -->   2 G_2            
     e( 21 - 22) =     10.74718  eV     2   -->   2 G_2            
     e( 23 - 24) =     10.84127  eV     2   -->   2 G_2            
     e( 25 - 26) =     13.93397  eV     2   -->   2 G_2            

 **************************************************************************

 **************************************************************************

                    xk=(  -0.47500,   0.47500,   0.47500  )

     Band symmetry, C_1 (1)     double point group:

     e(  1 -  2) =     -8.80460  eV     2   -->   2 G_2            
     e(  3 -  3) =     -8.78434  eV     1   --> G_2            
     e(  4 -  4) =     -8.78356  eV     1   --> G_2            
     e(  5 -  6) =     -8.36574  eV     2   -->   2 G_2            
     e(  7 -  8) =     -8.33107  eV     2   -->   2 G_2            
     e(  9 -  9) =     -8.29685  eV     1   --> G_2            
     e( 10 - 10) =     -8.29597  eV     1   --> G_2            
     e( 11 - 12) =     -4.58641  eV     2   -->   2 G_2            
     e( 13 - 14) =     -0.16558  eV     2   -->   2 G_2            
     e( 15 - 16) =      5.02484  eV     2   -->   2 G_2            
     e( 17 - 17) =      5.22660  eV     1   --> G_2            
     e( 18 - 18) =      5.22705  eV     1   --> G_2            
     e( 19 - 20) =      7.05343  eV     2   -->   2 G_2            
     e( 21 - 22) =     10.74931  eV     2   -->   2 G_2            
     e( 23 - 23) =     10.84370  eV     1   --> G_2            
     e( 24 - 24) =     10.84396  eV     1   --> G_2            
     e( 25 - 26) =     13.93300  eV     2   -->   2 G_2            

 **************************************************************************

 **************************************************************************

                    xk=(  -0.45000,   0.45000,   0.45000  )

     Band symmetry, C_1 (1)     double point group:

     e(  1 -  2) =     -8.80430  eV     2   -->   2 G_2            
     e(  3 -  3) =     -8.78479  eV     1   --> G_2            
     e(  4 -  4) =     -8.78325  eV     1   --> G_2            
     e(  5 -  6) =     -8.36567  eV     2   -->   2 G_2            
     e(  7 -  8) =     -8.33084  eV     2   -->   2 G_2            
     e(  9 -  9) =     -8.29762  eV     1   --> G_2            
     e( 10 - 10) =     -8.29588  eV     1   --> G_2            
     e( 11 - 12) =     -4.63424  eV     2   -->   2 G_2            
     e( 13 - 14) =     -0.07596  eV     2   -->   2 G_2            
     e( 15 - 16) =      5.03888  eV     2   -->   2 G_2            
     e( 17 - 17) =      5.24051  eV     1   --> G_2            
     e( 18 - 18) =      5.24142  eV     1   --> G_2            
     e( 19 - 20) =      7.06816  eV     2   -->   2 G_2            
     e( 21 - 22) =     10.75531  eV     2   -->   2 G_2            
     e( 23 - 23) =     10.85087  eV     1   --> G_2            
     e( 24 - 24) =     10.85141  eV     1   --> G_2            
     e( 25 - 26) =     13.92658  eV     2   -->   2 G_2            

 **************************************************************************

 **************************************************************************

                    xk=(  -0.42500,   0.42500,   0.42500  )

     Band symmetry, C_1 (1)     double point group:

     e(  1 -  2) =     -8.80375  eV     2   -->   2 G_2            
     e(  3 -  3) =     -8.78525  eV     1   --> G_2            
     e(  4 -  4) =     -8.78297  eV     1   --> G_2            
     e(  5 -  6) =     -8.36550  eV     2   -->   2 G_2            
     e(  7 -  8) =     -8.33044  eV     2   -->   2 G_2            
     e(  9 -  9) =     -8.29854  eV     1   --> G_2            
     e( 10 - 10) =     -8.29598  eV     1   --> G_2            
     e( 11 - 12) =     -4.70937  eV     2   -->   2 G_2            
     e( 13 - 14) =      0.06869  eV     2   -->   2 G_2            
     e( 15 - 16) =      5.06216  eV     2   -->   2 G_2            
     e( 17 - 17) =      5.26376  eV     1   --> G_2            
     e( 18 - 18) =      5.26510  eV     1   --> G_2            
     e( 19 - 20) =      7.09256  eV     2   -->   2 G_2            
     e( 21 - 22) =     10.76405  eV     2   -->   2 G_2            
     e( 23 - 23) =     10.86165  eV     1   --> G_2            
     e( 24 - 24) =     10.86248  eV     1   --> G_2            
     e( 25 - 26) =     13.90215  eV     2   -->   2 G_2            

 **************************************************************************

 **************************************************************************

                    xk=(  -0.40000,   0.40000,   0.40000  )

     Band symmetry, C_1 (1)     double point group:

     e(  1 -  2) =     -8.80299  eV     2   -->   2 G_2            
     e(  3 -  3) =     -8.78572  eV     1   --> G_2            
     e(  4 -  4) =     -8.78277  eV     1   --> G_2            
     e(  5 -  6) =     -8.36525  eV     2   -->   2 G_2            
     e(  7 -  8) =     -8.32988  eV     2   -->   2 G_2            
     e(  9 -  9) =     -8.29960  eV     1   --> G_2            
     e( 10 - 10) =     -8.29628  eV     1   --> G_2            
     e( 11 - 12) =     -4.80618  eV     2   -->   2 G_2            
     e( 13 - 14) =      0.26257  eV     2   -->   2 G_2            
     e( 15 - 16) =      5.09451  eV     2   -->   2 G_2            
     e( 17 - 17) =      5.29615  eV     1   --> G_2            
     e( 18 - 18) =      5.29790  eV     1   --> G_2            
     e( 19 - 20) =      7.12631  eV     2   -->   2 G_2            
     e( 21 - 22) =     10.77361  eV     2   -->   2 G_2            
     e( 23 - 23) =     10.87410  eV     1   --> G_2            
     e( 24 - 24) =     10.87523  eV     1   --> G_2            
     e( 25 - 26) =     13.83298  eV     2   -->   2 G_2            

 **************************************************************************

 **************************************************************************

                    xk=(  -0.37500,   0.37500,   0.37500  )

     Band symmetry, C_1 (1)     double point group:

     e(  1 -  2) =     -8.80209  eV     2   -->   2 G_2            
     e(  3 -  3) =     -8.78621  eV     1   --> G_2            
     e(  4 -  4) =     -8.78266  eV     1   --> G_2            
     e(  5 -  6) =     -8.36496  eV     2   -->   2 G_2            
     e(  7 -  8) =     -8.32918  eV     2   -->   2 G_2            
     e(  9 -  9) =     -8.30082  eV     1   --> G_2            
     e( 10 - 10) =     -8.29683  eV     1   --> G_2            
     e( 11 - 12) =     -4.91862  eV     2   -->   2 G_2            
     e( 13 - 14) =      0.49931  eV     2   -->   2 G_2            
     e( 15 - 16) =      5.13566  eV     2   -->   2 G_2            
     e( 17 - 17) =      5.33745  eV     1   --> G_2            
     e( 18 - 18) =      5.33958  eV     1   --> G_2            
     e( 19 - 20) =      7.16896  eV     2   -->   2 G_2            
     e( 21 - 22) =     10.78128  eV     2   -->   2 G_2            
     e( 23 - 23) =     10.88544  eV     1   --> G_2            
     e( 24 - 24) =     10.88690  eV     1   --> G_2            
     e( 25 - 26) =     13.67982  eV     2   -->   2 G_2            

 **************************************************************************

 **************************************************************************

                    xk=(  -0.35000,   0.35000,   0.35000  )

     Band symmetry, C_1 (1)     double point group:

     e(  1 -  2) =     -8.80102  eV     2   -->   2 G_2            
     e(  3 -  3) =     -8.78668  eV     1   --> G_2            
     e(  4 -  4) =     -8.78262  eV     1   --> G_2            
     e(  5 -  6) =     -8.36459  eV     2   -->   2 G_2            
     e(  7 -  8) =     -8.32832  eV     2   -->   2 G_2            
     e(  9 -  9) =     -8.30211  eV     1   --> G_2            
     e( 10 - 10) =     -8.29755  eV     1   --> G_2            
     e( 11 - 12) =     -5.04099  eV     2   -->   2 G_2            
     e( 13 - 14) =      0.77285  eV     2   -->   2 G_2            
     e( 15 - 16) =      5.18523  eV     2   -->   2 G_2            
     e( 17 - 17) =      5.38730  eV     1   --> G_2            
     e( 18 - 18) =      5.38977  eV     1   --> G_2            
     e( 19 - 20) =      7.21979  eV     2   -->   2 G_2            
     e( 21 - 22) =     10.78361  eV     2   -->   2 G_2            
     e( 23 - 23) =     10.89214  eV     1   --> G_2            
     e( 24 - 24) =     10.89393  eV     1   --> G_2            
     e( 25 - 26) =     13.42264  eV     2   -->   2 G_2            

 **************************************************************************

 **************************************************************************

                    xk=(  -0.32500,   0.32500,   0.32500  )

     Band symmetry, C_1 (1)     double point group:

     e(  1 -  2) =     -8.79984  eV     2   -->   2 G_2            
     e(  3 -  3) =     -8.78714  eV     1   --> G_2            
     e(  4 -  4) =     -8.78266  eV     1   --> G_2            
     e(  5 -  6) =     -8.36416  eV     2   -->   2 G_2            
     e(  7 -  8) =     -8.32731  eV     2   -->   2 G_2            
     e(  9 -  9) =     -8.30347  eV     1   --> G_2            
     e( 10 - 10) =     -8.29844  eV     1   --> G_2            
     e( 11 - 12) =     -5.16834  eV     2   -->   2 G_2            
     e( 13 - 14) =      1.07777  eV     2   -->   2 G_2            
     e( 15 - 16) =      5.24276  eV     2   -->   2 G_2            
     e( 17 - 17) =      5.44524  eV     1   --> G_2            
     e( 18 - 18) =      5.44799  eV     1   --> G_2            
     e( 19 - 20) =      7.27780  eV     2   -->   2 G_2            
     e( 21 - 22) =     10.77663  eV     2   -->   2 G_2            
     e( 23 - 23) =     10.89001  eV     1   --> G_2            
     e( 24 - 24) =     10.89211  eV     1   --> G_2            
     e( 25 - 26) =     13.08613  eV     2   -->   2 G_2            

 **************************************************************************

 **************************************************************************

                    xk=(  -0.30000,   0.30000,   0.30000  )

     Band symmetry, C_1 (1)     double point group:

     e(  1 -  2) =     -8.79858  eV     2   -->   2 G_2            
     e(  3 -  3) =     -8.78756  eV     1   --> G_2            
     e(  4 -  4) =     -8.78277  eV     1   --> G_2            
     e(  5 -  6) =     -8.36365  eV     2   -->   2 G_2            
     e(  7 -  8) =     -8.32616  eV     2   -->   2 G_2            
     e(  9 -  9) =     -8.30486  eV     1   --> G_2            
     e( 10 - 10) =     -8.29948  eV     1   --> G_2            
     e( 11 - 12) =     -5.29660  eV     2   -->   2 G_2            
     e( 13 - 14) =      1.40939  eV     2   -->   2 G_2            
     e( 15 - 16) =      5.30761  eV     2   -->   2 G_2            
     e( 17 - 17) =      5.51065  eV     1   --> G_2            
     e( 18 - 18) =      5.51365  eV     1   --> G_2            
     e( 19 - 20) =      7.34147  eV     2   -->   2 G_2            
     e( 21 - 22) =     10.75619  eV     2   -->   2 G_2            
     e( 23 - 23) =     10.87462  eV     1   --> G_2            
     e( 24 - 24) =     10.87698  eV     1   --> G_2            
     e( 25 - 26) =     12.70811  eV     2   -->   2 G_2            

 **************************************************************************

 **************************************************************************

                    xk=(  -0.27500,   0.27500,   0.27500  )

     Band symmetry, C_1 (1)     double point group:

     e(  1 -  2) =     -8.79728  eV     2   -->   2 G_2            
     e(  3 -  3) =     -8.78795  eV     1   --> G_2            
     e(  4 -  4) =     -8.78297  eV     1   --> G_2            
     e(  5 -  6) =     -8.36309  eV     2   -->   2 G_2            
     e(  7 -  8) =     -8.32489  eV     2   -->   2 G_2            
     e(  9 -  9) =     -8.30623  eV     1   --> G_2            
     e( 10 - 10) =     -8.30064  eV     1   --> G_2            
     e( 11 - 12) =     -5.42248  eV     2   -->   2 G_2            
     e( 13 - 14) =      1.76372  eV     2   -->   2 G_2            
     e( 15 - 16) =      5.37901  eV     2   -->   2 G_2            
     e( 17 - 17) =      5.58277  eV     1   --> G_2            
     e( 18 - 18) =      5.58595  eV     1   --> G_2            
     e( 19 - 20) =      7.40858  eV     2   -->   2 G_2            
     e( 21 - 22) =     10.71867  eV     2   -->   2 G_2            
     e( 23 - 23) =     10.84190  eV     1   --> G_2            
     e( 24 - 24) =     10.84443  eV     1   --> G_2            
     e( 25 - 26) =     12.31438  eV     2   -->   2 G_2            

 **************************************************************************

 **************************************************************************

                    xk=(  -0.25000,   0.25000,   0.25000  )

     Band symmetry, C_1 (1)     double point group:

     e(  1 -  2) =     -8.79598  eV     2   -->   2 G_2            
     e(  3 -  3) =     -8.78829  eV     1   --> G_2            
     e(  4 -  4) =     -8.78324  eV     1   --> G_2            
     e(  5 -  6) =     -8.36248  eV     2   -->   2 G_2            
     e(  7 -  8) =     -8.32353  eV     2   -->   2 G_2            
     e(  9 -  9) =     -8.30757  eV     1   --> G_2            
     e( 10 - 10) =     -8.30190  eV     1   --> G_2            
     e( 11 - 12) =     -5.54338  eV     2   -->   2 G_2            
     e( 13 - 14) =      2.13727  eV     2   -->   2 G_2            
     e( 15 - 16) =      5.45594  eV     2   -->   2 G_2            
     e( 17 - 17) =      5.66062  eV     1   --> G_2            
     e( 18 - 18) =      5.66391  eV     1   --> G_2            
     e( 19 - 20) =      7.47587  eV     2   -->   2 G_2            
     e( 21 - 22) =     10.66176  eV     2   -->   2 G_2            
     e( 23 - 23) =     10.78908  eV     1   --> G_2            
     e( 24 - 24) =     10.79165  eV     1   --> G_2            
     e( 25 - 26) =     11.92003  eV     2   -->   2 G_2            

 **************************************************************************

 **************************************************************************

                    xk=(  -0.22500,   0.22500,   0.22500  )

     Band symmetry, C_1 (1)     double point group:

     e(  1 -  2) =     -8.79468  eV     2   -->   2 G_2            
     e(  3 -  3) =     -8.78859  eV     1   --> G_2            
     e(  4 -  4) =     -8.78360  eV     1   --> G_2            
     e(  5 -  6) =     -8.36183  eV     2   -->   2 G_2            
     e(  7 -  8) =     -8.32211  eV     2   -->   2 G_2            
     e(  9 -  9) =     -8.30882  eV     1   --> G_2            
     e( 10 - 10) =     -8.30322  eV     1   --> G_2            
     e( 11 - 12) =     -5.65727  eV     2   -->   2 G_2            
     e( 13 - 14) =      2.52696  eV     2   -->   2 G_2            
     e( 15 - 16) =      5.53716  eV     2   -->   2 G_2            
     e( 17 - 17) =      5.74293  eV     1   --> G_2            
     e( 18 - 18) =      5.74627  eV     1   --> G_2            
     e( 19 - 20) =      7.53851  eV     2   -->   2 G_2            
     e( 21 - 22) =     10.58521  eV     2   -->   2 G_2            
     e( 23 - 23) =     10.71554  eV     1   --> G_2            
     e( 24 - 24) =     10.71801  eV     1   --> G_2            
     e( 25 - 26) =     11.53523  eV     2   -->   2 G_2            

 **************************************************************************

 **************************************************************************

                    xk=(  -0.20000,   0.20000,   0.20000  )

     Band symmetry, C_1 (1)     double point group:

     e(  1 -  2) =     -8.79343  eV     2   -->   2 G_2            
     e(  3 -  3) =     -8.78882  eV     1   --> G_2            
     e(  4 -  4) =     -8.78401  eV     1   --> G_2            
     e(  5 -  6) =     -8.36115  eV     2   -->   2 G_2            
     e(  7 -  8) =     -8.32063  eV     2   -->   2 G_2            
     e(  9 -  9) =     -8.30996  eV     1   --> G_2            
     e( 10 - 10) =     -8.30456  eV     1   --> G_2            
     e( 11 - 12) =     -5.76251  eV     2   -->   2 G_2            
     e( 13 - 14) =      2.92989  eV     2   -->   2 G_2            
     e( 15 - 16) =      5.62111  eV     2   -->   2 G_2            
     e( 17 - 17) =      5.82816  eV     1   --> G_2            
     e( 18 - 18) =      5.83146  eV     1   --> G_2            
     e( 19 - 20) =      7.58938  eV     2   -->   2 G_2            
     e( 21 - 22) =     10.49117  eV     2   -->   2 G_2            
     e( 23 - 23) =     10.62330  eV     1   --> G_2            
     e( 24 - 24) =     10.62554  eV     1   --> G_2            
     e( 25 - 26) =     11.16898  eV     2   -->   2 G_2            

 **************************************************************************

 **************************************************************************

                    xk=(  -0.17500,   0.17500,   0.17500  )

     Band symmetry, C_1 (1)     double point group:

     e(  1 -  2) =     -8.79225  eV     2   -->   2 G_2            
     e(  3 -  3) =     -8.78898  eV     1   --> G_2            
     e(  4 -  4) =     -8.78447  eV     1   --> G_2            
     e(  5 -  6) =     -8.36046  eV     2   -->   2 G_2            
     e(  7 -  8) =     -8.31914  eV     2   -->   2 G_2            
     e(  9 -  9) =     -8.31096  eV     1   --> G_2            
     e( 10 - 10) =     -8.30590  eV     1   --> G_2            
     e( 11 - 12) =     -5.85783  eV     2   -->   2 G_2            
     e( 13 - 14) =      3.34327  eV     2   -->   2 G_2            
     e( 15 - 16) =      5.70590  eV     2   -->   2 G_2            
     e( 17 - 17) =      5.91437  eV     1   --> G_2            
     e( 18 - 18) =      5.91756  eV     1   --> G_2            
     e( 19 - 20) =      7.61824  eV     2   -->   2 G_2            
     e( 21 - 22) =     10.38378  eV     2   -->   2 G_2            
     e( 23 - 23) =     10.51687  eV     1   --> G_2            
     e( 24 - 24) =     10.51878  eV     1   --> G_2            
     e( 25 - 26) =     10.83157  eV     2   -->   2 G_2            

 **************************************************************************

 **************************************************************************

                    xk=(  -0.15000,   0.15000,   0.15000  )

     Band symmetry, C_1 (1)     double point group:

     e(  1 -  2) =     -8.79118  eV     2   -->   2 G_2            
     e(  3 -  3) =     -8.78907  eV     1   --> G_2            
     e(  4 -  4) =     -8.78497  eV     1   --> G_2            
     e(  5 -  6) =     -8.35980  eV     2   -->   2 G_2            
     e(  7 -  8) =     -8.31770  eV     2   -->   2 G_2            
     e(  9 -  9) =     -8.31180  eV     1   --> G_2            
     e( 10 - 10) =     -8.30720  eV     1   --> G_2            
     e( 11 - 12) =     -5.94221  eV     2   -->   2 G_2            
     e( 13 - 14) =      3.76420  eV     2   -->   2 G_2            
     e( 15 - 16) =      5.78925  eV     2   -->   2 G_2            
     e( 17 - 17) =      5.99921  eV     1   --> G_2            
     e( 18 - 18) =      6.00220  eV     1   --> G_2            
     e( 19 - 20) =      7.61130  eV     2   -->   2 G_2            
     e( 21 - 22) =     10.26777  eV     2   -->   2 G_2            
     e( 23 - 23) =     10.40264  eV     1   --> G_2            
     e( 24 - 24) =     10.40417  eV     1   --> G_2            
     e( 25 - 26) =     10.53638  eV     2   -->   2 G_2            

 **************************************************************************

 **************************************************************************

                    xk=(  -0.12500,   0.12500,   0.12500  )

     Band symmetry, C_1 (1)     double point group:

     e(  1 -  2) =     -8.79022  eV     2   -->   2 G_2            
     e(  3 -  3) =     -8.78908  eV     1   --> G_2            
     e(  4 -  4) =     -8.78549  eV     1   --> G_2            
     e(  5 -  6) =     -8.35917  eV     2   -->   2 G_2            
     e(  7 -  8) =     -8.31634  eV     2   -->   2 G_2            
     e(  9 -  9) =     -8.31245  eV     1   --> G_2            
     e( 10 - 10) =     -8.30843  eV     1   --> G_2            
     e( 11 - 12) =     -6.01483  eV     2   -->   2 G_2            
     e( 13 - 14) =      4.18957  eV     2   -->   2 G_2            
     e( 15 - 16) =      5.86848  eV     2   -->   2 G_2            
     e( 17 - 17) =      6.07986  eV     1   --> G_2            
     e( 18 - 18) =      6.08256  eV     1   --> G_2            
     e( 19 - 20) =      7.55234  eV     2   -->   2 G_2            
     e( 21 - 22) =     10.14514  eV     2   -->   2 G_2            
     e( 23 - 23) =     10.28801  eV     1   --> G_2            
     e( 24 - 24) =     10.28917  eV     1   --> G_2            
     e( 25 - 26) =     10.30154  eV     2   -->   2 G_2            

 **************************************************************************

 **************************************************************************

                    xk=(  -0.10000,   0.10000,   0.10000  )

     Band symmetry, C_1 (1)     double point group:

     e(  1 -  2) =     -8.78941  eV     2   -->   2 G_2            
     e(  3 -  3) =     -8.78899  eV     1   --> G_2            
     e(  4 -  4) =     -8.78601  eV     1   --> G_2            
     e(  5 -  6) =     -8.35861  eV     2   -->   2 G_2            
     e(  7 -  8) =     -8.31512  eV     2   -->   2 G_2            
     e(  9 -  9) =     -8.31289  eV     1   --> G_2            
     e( 10 - 10) =     -8.30955  eV     1   --> G_2            
     e( 11 - 12) =     -6.07507  eV     2   -->   2 G_2            
     e( 13 - 14) =      4.61572  eV     2   -->   2 G_2            
     e( 15 - 16) =      5.94072  eV     2   -->   2 G_2            
     e( 17 - 17) =      6.15311  eV     1   --> G_2            
     e( 18 - 18) =      6.15542  eV     1   --> G_2            
     e( 19 - 20) =      7.42723  eV     2   -->   2 G_2            
     e( 21 - 22) =     10.01658  eV     2   -->   2 G_2            
     e( 23 - 24) =     10.14352  eV     2   -->   2 G_2            
     e( 25 - 25) =     10.18065  eV     1   --> G_2            
     e( 26 - 26) =     10.18147  eV     1   --> G_2            

 **************************************************************************

 **************************************************************************

                    xk=(  -0.07500,   0.07500,   0.07500  )

     Band symmetry, C_1 (1)     double point group:

     e(  1 -  3) =     -8.78884  eV     3   -->   3 G_2            
     e(  4 -  4) =     -8.78654  eV     1   --> G_2            
     e(  5 -  6) =     -8.35817  eV     2   -->   2 G_2            
     e(  7 -  8) =     -8.31412  eV     2   -->   2 G_2            
     e(  9 -  9) =     -8.31316  eV     1   --> G_2            
     e( 10 - 10) =     -8.31058  eV     1   --> G_2            
     e( 11 - 12) =     -6.12241  eV     2   -->   2 G_2            
     e( 13 - 14) =      5.03789  eV     2   -->   2 G_2            
     e( 15 - 16) =      6.00325  eV     2   -->   2 G_2            
     e( 17 - 17) =      6.21542  eV     1   --> G_2            
     e( 18 - 18) =      6.21726  eV     1   --> G_2            
     e( 19 - 20) =      7.23043  eV     2   -->   2 G_2            
     e( 21 - 22) =      9.90385  eV     2   -->   2 G_2            
     e( 23 - 24) =     10.04799  eV     2   -->   2 G_2            
     e( 25 - 25) =     10.08791  eV     1   --> G_2            
     e( 26 - 26) =     10.08844  eV     1   --> G_2            

 **************************************************************************

 **************************************************************************

                    xk=(  -0.05000,   0.05000,   0.05000  )

     Band symmetry, C_1 (1)     double point group:

     e(  1 -  1) =     -8.78863  eV     1   --> G_2            
     e(  2 -  3) =     -8.78833  eV     2   -->   2 G_2            
     e(  4 -  4) =     -8.78706  eV     1   --> G_2            
     e(  5 -  6) =     -8.35783  eV     2   -->   2 G_2            
     e(  7 -  8) =     -8.31339  eV     2   -->   2 G_2            
     e(  9 -  9) =     -8.31326  eV     1   --> G_2            
     e( 10 - 10) =     -8.31150  eV     1   --> G_2            
     e( 11 - 12) =     -6.15649  eV     2   -->   2 G_2            
     e( 13 - 14) =      5.44793  eV     2   -->   2 G_2            
     e( 15 - 16) =      6.05553  eV     2   -->   2 G_2            
     e( 17 - 17) =      6.26328  eV     1   --> G_2            
     e( 18 - 18) =      6.26456  eV     1   --> G_2            
     e( 19 - 20) =      6.96824  eV     2   -->   2 G_2            
     e( 21 - 22) =      9.82529  eV     2   -->   2 G_2            
     e( 23 - 24) =      9.99182  eV     2   -->   2 G_2            
     e( 25 - 25) =     10.01631  eV     1   --> G_2            
     e( 26 - 26) =     10.01662  eV     1   --> G_2            

 **************************************************************************

 **************************************************************************

                    xk=(  -0.02500,   0.02500,   0.02500  )

     Band symmetry, C_1 (1)     double point group:

     e(  1 -  1) =     -8.78833  eV     1   --> G_2            
     e(  2 -  3) =     -8.78806  eV     2   -->   2 G_2            
     e(  4 -  4) =     -8.78754  eV     1   --> G_2            
     e(  5 -  6) =     -8.35763  eV     2   -->   2 G_2            
     e(  7 -  7) =     -8.31312  eV     1   --> G_2            
     e(  8 -  9) =     -8.31293  eV     2   -->   2 G_2            
     e( 10 - 10) =     -8.31222  eV     1   --> G_2            
     e( 11 - 12) =     -6.17704  eV     2   -->   2 G_2            
     e( 13 - 14) =      5.81682  eV     2   -->   2 G_2            
     e( 15 - 16) =      6.11497  eV     2   -->   2 G_2            
     e( 17 - 17) =      6.29359  eV     1   --> G_2            
     e( 18 - 18) =      6.29424  eV     1   --> G_2            
     e( 19 - 20) =      6.65658  eV     2   -->   2 G_2            
     e( 21 - 22) =      9.78006  eV     2   -->   2 G_2            
     e( 23 - 24) =      9.96380  eV     2   -->   2 G_2            
     e( 25 - 25) =      9.97109  eV     1   --> G_2            
     e( 26 - 26) =      9.97122  eV     1   --> G_2            

 **************************************************************************

 **************************************************************************

                    xk=(   0.00000,   0.00000,   0.00000  )

     Band symmetry, C_1 (1)     double point group:

     e(  1 -  4) =     -8.78796  eV     4   -->   4 G_2            
     e(  5 -  6) =     -8.35756  eV     2   -->   2 G_2            
     e(  7 - 10) =     -8.31277  eV     4   -->   4 G_2            
     e( 11 - 12) =     -6.18391  eV     2   -->   2 G_2            
     e( 13 - 14) =      5.97606  eV     2   -->   2 G_2            
     e( 15 - 18) =      6.30417  eV     4   -->   4 G_2            
     e( 19 - 20) =      6.34636  eV     2   -->   2 G_2            
     e( 21 - 22) =      9.76524  eV     2   -->   2 G_2            
     e( 23 - 26) =      9.95566  eV     4   -->   4 G_2            

 **************************************************************************

 **************************************************************************

                    xk=(  -0.05000,   0.00000,   0.00000  )

     Band symmetry, C_1 (1)     double point group:

     e(  1 -  2) =     -8.78837  eV     2   -->   2 G_2            
     e(  3 -  4) =     -8.78764  eV     2   -->   2 G_2            
     e(  5 -  6) =     -8.35765  eV     2   -->   2 G_2            
     e(  7 -  8) =     -8.31317  eV     2   -->   2 G_2            
     e(  9 - 10) =     -8.31244  eV     2   -->   2 G_2            
     e( 11 - 12) =     -6.17475  eV     2   -->   2 G_2            
     e( 13 - 14) =      5.78081  eV     2   -->   2 G_2            
     e( 15 - 16) =      6.09054  eV     2   -->   2 G_2            
     e( 17 - 18) =      6.27108  eV     2   -->   2 G_2            
     e( 19 - 20) =      6.72455  eV     2   -->   2 G_2            
     e( 21 - 22) =      9.77652  eV     2   -->   2 G_2            
     e( 23 - 24) =      9.95412  eV     2   -->   2 G_2            
     e( 25 - 26) =      9.99661  eV     2   -->   2 G_2            

 **************************************************************************

 **************************************************************************

                    xk=(  -0.10000,   0.00000,   0.00000  )

     Band symmetry, C_1 (1)     double point group:

     e(  1 -  2) =     -8.78904  eV     2   -->   2 G_2            
     e(  3 -  4) =     -8.78722  eV     2   -->   2 G_2            
     e(  5 -  6) =     -8.35794  eV     2   -->   2 G_2            
     e(  7 -  8) =     -8.31362  eV     2   -->   2 G_2            
     e(  9 - 10) =     -8.31219  eV     2   -->   2 G_2            
     e( 11 - 12) =     -6.14735  eV     2   -->   2 G_2            
     e( 13 - 14) =      5.38297  eV     2   -->   2 G_2            
     e( 15 - 16) =      5.98198  eV     2   -->   2 G_2            
     e( 17 - 18) =      6.17695  eV     2   -->   2 G_2            
     e( 19 - 20) =      7.14146  eV     2   -->   2 G_2            
     e( 21 - 22) =      9.73153  eV     2   -->   2 G_2            
     e( 23 - 24) =     10.03008  eV     2   -->   2 G_2            
     e( 25 - 26) =     10.11553  eV     2   -->   2 G_2            

 **************************************************************************

 **************************************************************************

                    xk=(  -0.15000,   0.00000,   0.00000  )

     Band symmetry, C_1 (1)     double point group:

     e(  1 -  2) =     -8.79006  eV     2   -->   2 G_2            
     e(  3 -  4) =     -8.78663  eV     2   -->   2 G_2            
     e(  5 -  6) =     -8.35846  eV     2   -->   2 G_2            
     e(  7 -  8) =     -8.31407  eV     2   -->   2 G_2            
     e(  9 - 10) =     -8.31203  eV     2   -->   2 G_2            
     e( 11 - 12) =     -6.10191  eV     2   -->   2 G_2            
     e( 13 - 14) =      4.96296  eV     2   -->   2 G_2            
     e( 15 - 16) =      5.84876  eV     2   -->   2 G_2            
     e( 17 - 18) =      6.03456  eV     2   -->   2 G_2            
     e( 19 - 20) =      7.55188  eV     2   -->   2 G_2            
     e( 21 - 22) =      9.60198  eV     2   -->   2 G_2            
     e( 23 - 24) =     10.21619  eV     2   -->   2 G_2            
     e( 25 - 26) =     10.30232  eV     2   -->   2 G_2            

 **************************************************************************

 **************************************************************************

                    xk=(  -0.20000,   0.00000,   0.00000  )

     Band symmetry, C_1 (1)     double point group:

     e(  1 -  2) =     -8.79141  eV     2   -->   2 G_2            
     e(  3 -  4) =     -8.78584  eV     2   -->   2 G_2            
     e(  5 -  6) =     -8.35920  eV     2   -->   2 G_2            
     e(  7 -  8) =     -8.31441  eV     2   -->   2 G_2            
     e(  9 - 10) =     -8.31192  eV     2   -->   2 G_2            
     e( 11 - 12) =     -6.03876  eV     2   -->   2 G_2            
     e( 13 - 14) =      4.54195  eV     2   -->   2 G_2            
     e( 15 - 16) =      5.68644  eV     2   -->   2 G_2            
     e( 17 - 18) =      5.85884  eV     2   -->   2 G_2            
     e( 19 - 20) =      7.94207  eV     2   -->   2 G_2            
     e( 21 - 22) =      9.43686  eV     2   -->   2 G_2            
     e( 23 - 24) =     10.46980  eV     2   -->   2 G_2            
     e( 25 - 26) =     10.54447  eV     2   -->   2 G_2            

 **************************************************************************

 **************************************************************************

                    xk=(  -0.25000,   0.00000,   0.00000  )

     Band symmetry, C_1 (1)     double point group:

     e(  1 -  2) =     -8.79308  eV     2   -->   2 G_2            
     e(  3 -  4) =     -8.78487  eV     2   -->   2 G_2            
     e(  5 -  6) =     -8.36020  eV     2   -->   2 G_2            
     e(  7 -  8) =     -8.31454  eV     2   -->   2 G_2            
     e(  9 - 10) =     -8.31183  eV     2   -->   2 G_2            
     e( 11 - 12) =     -5.95836  eV     2   -->   2 G_2            
     e( 13 - 14) =      4.12401  eV     2   -->   2 G_2            
     e( 15 - 16) =      5.50439  eV     2   -->   2 G_2            
     e( 17 - 18) =      5.66315  eV     2   -->   2 G_2            
     e( 19 - 20) =      8.29023  eV     2   -->   2 G_2            
     e( 21 - 22) =      9.26987  eV     2   -->   2 G_2            
     e( 23 - 24) =     10.76952  eV     2   -->   2 G_2            
     e( 25 - 26) =     10.83001  eV     2   -->   2 G_2            

 **************************************************************************

 **************************************************************************

                    xk=(  -0.30000,   0.00000,   0.00000  )

     Band symmetry, C_1 (1)     double point group:

     e(  1 -  2) =     -8.79503  eV     2   -->   2 G_2            
     e(  3 -  4) =     -8.78378  eV     2   -->   2 G_2            
     e(  5 -  6) =     -8.36146  eV     2   -->   2 G_2            
     e(  7 -  8) =     -8.31442  eV     2   -->   2 G_2            
     e(  9 - 10) =     -8.31178  eV     2   -->   2 G_2            
     e( 11 - 12) =     -5.86131  eV     2   -->   2 G_2            
     e( 13 - 14) =      3.71077  eV     2   -->   2 G_2            
     e( 15 - 16) =      5.31169  eV     2   -->   2 G_2            
     e( 17 - 18) =      5.45789  eV     2   -->   2 G_2            
     e( 19 - 20) =      8.54238  eV     2   -->   2 G_2            
     e( 21 - 22) =      9.15293  eV     2   -->   2 G_2            
     e( 23 - 24) =     11.10258  eV     2   -->   2 G_2            
     e( 25 - 26) =     11.14897  eV     2   -->   2 G_2            

 **************************************************************************

 **************************************************************************

                    xk=(  -0.35000,   0.00000,   0.00000  )

     Band symmetry, C_1 (1)     double point group:

     e(  1 -  2) =     -8.79720  eV     2   -->   2 G_2            
     e(  3 -  4) =     -8.78255  eV     2   -->   2 G_2            
     e(  5 -  6) =     -8.36293  eV     2   -->   2 G_2            
     e(  7 -  8) =     -8.31396  eV     2   -->   2 G_2            
     e(  9 - 10) =     -8.31170  eV     2   -->   2 G_2            
     e( 11 - 12) =     -5.74832  eV     2   -->   2 G_2            
     e( 13 - 14) =      3.30326  eV     2   -->   2 G_2            
     e( 15 - 16) =      5.11563  eV     2   -->   2 G_2            
     e( 17 - 18) =      5.25075  eV     2   -->   2 G_2            
     e( 19 - 20) =      8.59280  eV     2   -->   2 G_2            
     e( 21 - 22) =      9.17978  eV     2   -->   2 G_2            
     e( 23 - 24) =     11.46013  eV     2   -->   2 G_2            
     e( 25 - 26) =     11.49351  eV     2   -->   2 G_2            

 **************************************************************************

 **************************************************************************

                    xk=(  -0.40000,   0.00000,   0.00000  )

     Band symmetry, C_1 (1)     double point group:

     e(  1 -  2) =     -8.79953  eV     2   -->   2 G_2            
     e(  3 -  4) =     -8.78124  eV     2   -->   2 G_2            
     e(  5 -  6) =     -8.36454  eV     2   -->   2 G_2            
     e(  7 -  8) =     -8.31324  eV     2   -->   2 G_2            
     e(  9 - 10) =     -8.31157  eV     2   -->   2 G_2            
     e( 11 - 12) =     -5.62027  eV     2   -->   2 G_2            
     e( 13 - 14) =      2.90238  eV     2   -->   2 G_2            
     e( 15 - 16) =      4.92173  eV     2   -->   2 G_2            
     e( 17 - 18) =      5.04730  eV     2   -->   2 G_2            
     e( 19 - 20) =      8.48388  eV     2   -->   2 G_2            
     e( 21 - 22) =      9.29013  eV     2   -->   2 G_2            
     e( 23 - 24) =     11.83546  eV     2   -->   2 G_2            
     e( 25 - 26) =     11.85784  eV     2   -->   2 G_2            

 **************************************************************************

 **************************************************************************

                    xk=(  -0.45000,   0.00000,   0.00000  )

     Band symmetry, C_1 (1)     double point group:

     e(  1 -  2) =     -8.80198  eV     2   -->   2 G_2            
     e(  3 -  4) =     -8.77989  eV     2   -->   2 G_2            
     e(  5 -  6) =     -8.36625  eV     2   -->   2 G_2            
     e(  7 -  8) =     -8.31245  eV     2   -->   2 G_2            
     e(  9 - 10) =     -8.31120  eV     2   -->   2 G_2            
     e( 11 - 12) =     -5.47825  eV     2   -->   2 G_2            
     e( 13 - 14) =      2.50911  eV     2   -->   2 G_2            
     e( 15 - 16) =      4.73415  eV     2   -->   2 G_2            
     e( 17 - 18) =      4.85160  eV     2   -->   2 G_2            
     e( 19 - 20) =      8.33538  eV     2   -->   2 G_2            
     e( 21 - 22) =      9.35015  eV     2   -->   2 G_2            
     e( 23 - 24) =     12.22247  eV     2   -->   2 G_2            
     e( 25 - 26) =     12.23845  eV     2   -->   2 G_2            

 **************************************************************************

 **************************************************************************

                    xk=(  -0.50000,   0.00000,   0.00000  )

     Band symmetry, C_1 (1)     double point group:

     e(  1 -  2) =     -8.80447  eV     2   -->   2 G_2            
     e(  3 -  4) =     -8.77848  eV     2   -->   2 G_2            
     e(  5 -  6) =     -8.36794  eV     2   -->   2 G_2            
     e(  7 -  8) =     -8.31199  eV     2   -->   2 G_2            
     e(  9 - 10) =     -8.31017  eV     2   -->   2 G_2            
     e( 11 - 12) =     -5.32359  eV     2   -->   2 G_2            
     e( 13 - 14) =      2.12469  eV     2   -->   2 G_2            
     e( 15 - 16) =      4.55607  eV     2   -->   2 G_2            
     e( 17 - 18) =      4.66663  eV     2   -->   2 G_2            
     e( 19 - 20) =      8.18721  eV     2   -->   2 G_2            
     e( 21 - 22) =      9.32228  eV     2   -->   2 G_2            
     e( 23 - 24) =     12.61518  eV     2   -->   2 G_2            
     e( 25 - 26) =     12.63383  eV     2   -->   2 G_2            

 **************************************************************************

 **************************************************************************

                    xk=(  -0.55000,   0.00000,   0.00000  )

     Band symmetry, C_1 (1)     double point group:

     e(  1 -  2) =     -8.80694  eV     2   -->   2 G_2            
     e(  3 -  4) =     -8.77711  eV     2   -->   2 G_2            
     e(  5 -  6) =     -8.36958  eV     2   -->   2 G_2            
     e(  7 -  8) =     -8.31181  eV     2   -->   2 G_2            
     e(  9 - 10) =     -8.30869  eV     2   -->   2 G_2            
     e( 11 - 12) =     -5.15797  eV     2   -->   2 G_2            
     e( 13 - 14) =      1.75073  eV     2   -->   2 G_2            
     e( 15 - 16) =      4.38987  eV     2   -->   2 G_2            
     e( 17 - 18) =      4.49464  eV     2   -->   2 G_2            
     e( 19 - 20) =      8.05122  eV     2   -->   2 G_2            
     e( 21 - 22) =      9.21621  eV     2   -->   2 G_2            
     e( 23 - 24) =     13.01194  eV     2   -->   2 G_2            
     e( 25 - 26) =     13.03960  eV     2   -->   2 G_2            

 **************************************************************************

 **************************************************************************

                    xk=(  -0.60000,   0.00000,   0.00000  )

     Band symmetry, C_1 (1)     double point group:

     e(  1 -  2) =     -8.80936  eV     2   -->   2 G_2            
     e(  3 -  4) =     -8.77580  eV     2   -->   2 G_2            
     e(  5 -  6) =     -8.37114  eV     2   -->   2 G_2            
     e(  7 -  8) =     -8.31169  eV     2   -->   2 G_2            
     e(  9 - 10) =     -8.30704  eV     2   -->   2 G_2            
     e( 11 - 12) =     -4.98358  eV     2   -->   2 G_2            
     e( 13 - 14) =      1.38936  eV     2   -->   2 G_2            
     e( 15 - 16) =      4.23741  eV     2   -->   2 G_2            
     e( 17 - 18) =      4.33734  eV     2   -->   2 G_2            
     e( 19 - 20) =      7.93233  eV     2   -->   2 G_2            
     e( 21 - 22) =      9.05745  eV     2   -->   2 G_2            
     e( 23 - 24) =     13.41265  eV     2   -->   2 G_2            
     e( 25 - 26) =     13.45082  eV     2   -->   2 G_2            

 **************************************************************************

 **************************************************************************

                    xk=(  -0.65000,   0.00000,   0.00000  )

     Band symmetry, C_1 (1)     double point group:

     e(  1 -  2) =     -8.81163  eV     2   -->   2 G_2            
     e(  3 -  4) =     -8.77459  eV     2   -->   2 G_2            
     e(  5 -  6) =     -8.37252  eV     2   -->   2 G_2            
     e(  7 -  8) =     -8.31161  eV     2   -->   2 G_2            
     e(  9 - 10) =     -8.30533  eV     2   -->   2 G_2            
     e( 11 - 12) =     -4.80325  eV     2   -->   2 G_2            
     e( 13 - 14) =      1.04351  eV     2   -->   2 G_2            
     e( 15 - 16) =      4.10016  eV     2   -->   2 G_2            
     e( 17 - 18) =      4.19608  eV     2   -->   2 G_2            
     e( 19 - 20) =      7.83318  eV     2   -->   2 G_2            
     e( 21 - 22) =      8.87117  eV     2   -->   2 G_2            
     e( 23 - 24) =     13.81573  eV     2   -->   2 G_2            
     e( 25 - 26) =     13.86379  eV     2   -->   2 G_2            

 **************************************************************************

 **************************************************************************

                    xk=(  -0.70000,   0.00000,   0.00000  )

     Band symmetry, C_1 (1)     double point group:

     e(  1 -  2) =     -8.81371  eV     2   -->   2 G_2            
     e(  3 -  4) =     -8.77346  eV     2   -->   2 G_2            
     e(  5 -  6) =     -8.37374  eV     2   -->   2 G_2            
     e(  7 -  8) =     -8.31149  eV     2   -->   2 G_2            
     e(  9 - 10) =     -8.30366  eV     2   -->   2 G_2            
     e( 11 - 12) =     -4.62079  eV     2   -->   2 G_2            
     e( 13 - 14) =      0.71705  eV     2   -->   2 G_2            
     e( 15 - 16) =      3.97926  eV     2   -->   2 G_2            
     e( 17 - 18) =      4.07188  eV     2   -->   2 G_2            
     e( 19 - 20) =      7.75539  eV     2   -->   2 G_2            
     e( 21 - 22) =      8.67644  eV     2   -->   2 G_2            
     e( 23 - 24) =     14.21814  eV     2   -->   2 G_2            
     e( 25 - 26) =     14.27447  eV     2   -->   2 G_2            

 **************************************************************************

 **************************************************************************

                    xk=(  -0.75000,   0.00000,   0.00000  )

     Band symmetry, C_1 (1)     double point group:

     e(  1 -  2) =     -8.81555  eV     2   -->   2 G_2            
     e(  3 -  4) =     -8.77246  eV     2   -->   2 G_2            
     e(  5 -  6) =     -8.37475  eV     2   -->   2 G_2            
     e(  7 -  8) =     -8.31138  eV     2   -->   2 G_2            
     e(  9 - 10) =     -8.30206  eV     2   -->   2 G_2            
     e( 11 - 12) =     -4.44131  eV     2   -->   2 G_2            
     e( 13 - 14) =      0.41528  eV     2   -->   2 G_2            
     e( 15 - 16) =      3.87561  eV     2   -->   2 G_2            
     e( 17 - 18) =      3.96557  eV     2   -->   2 G_2            
     e( 19 - 20) =      7.70004  eV     2   -->   2 G_2            
     e( 21 - 22) =      8.48618  eV     2   -->   2 G_2            
     e( 23 - 24) =     14.61468  eV     2   -->   2 G_2            
     e( 25 - 26) =     14.67722  eV     2   -->   2 G_2            

 **************************************************************************

 **************************************************************************

                    xk=(  -0.80000,   0.00000,   0.00000  )

     Band symmetry, C_1 (1)     double point group:

     e(  1 -  2) =     -8.81715  eV     2   -->   2 G_2            
     e(  3 -  4) =     -8.77165  eV     2   -->   2 G_2            
     e(  5 -  6) =     -8.37562  eV     2   -->   2 G_2            
     e(  7 -  8) =     -8.31131  eV     2   -->   2 G_2            
     e(  9 - 10) =     -8.30073  eV     2   -->   2 G_2            
     e( 11 - 12) =     -4.27170  eV     2   -->   2 G_2            
     e( 13 - 14) =      0.14524  eV     2   -->   2 G_2            
     e( 15 - 16) =      3.78992  eV     2   -->   2 G_2            
     e( 17 - 18) =      3.87779  eV     2   -->   2 G_2            
     e( 19 - 20) =      7.66783  eV     2   -->   2 G_2            
     e( 21 - 22) =      8.30884  eV     2   -->   2 G_2            
     e( 23 - 24) =     14.99680  eV     2   -->   2 G_2            
     e( 25 - 26) =     15.06304  eV     2   -->   2 G_2            

 **************************************************************************

 **************************************************************************

                    xk=(  -0.85000,   0.00000,   0.00000  )

     Band symmetry, C_1 (1)     double point group:

     e(  1 -  2) =     -8.81842  eV     2   -->   2 G_2            
     e(  3 -  4) =     -8.77096  eV     2   -->   2 G_2            
     e(  5 -  6) =     -8.37626  eV     2   -->   2 G_2            
     e(  7 -  8) =     -8.31118  eV     2   -->   2 G_2            
     e(  9 - 10) =     -8.29959  eV     2   -->   2 G_2            
     e( 11 - 12) =     -4.12096  eV     2   -->   2 G_2            
     e( 13 - 14) =     -0.08385  eV     2   -->   2 G_2            
     e( 15 - 16) =      3.72274  eV     2   -->   2 G_2            
     e( 17 - 18) =      3.80904  eV     2   -->   2 G_2            
     e( 19 - 20) =      7.65907  eV     2   -->   2 G_2            
     e( 21 - 22) =      8.15003  eV     2   -->   2 G_2            
     e( 23 - 24) =     15.35025  eV     2   -->   2 G_2            
     e( 25 - 26) =     15.41706  eV     2   -->   2 G_2            

 **************************************************************************

 **************************************************************************

                    xk=(  -0.90000,   0.00000,   0.00000  )

     Band symmetry, C_1 (1)     double point group:

     e(  1 -  2) =     -8.81932  eV     2   -->   2 G_2            
     e(  3 -  4) =     -8.77048  eV     2   -->   2 G_2            
     e(  5 -  6) =     -8.37670  eV     2   -->   2 G_2            
     e(  7 -  8) =     -8.31113  eV     2   -->   2 G_2            
     e(  9 - 10) =     -8.29874  eV     2   -->   2 G_2            
     e( 11 - 12) =     -4.00013  eV     2   -->   2 G_2            
     e( 13 - 14) =     -0.26080  eV     2   -->   2 G_2            
     e( 15 - 16) =      3.67447  eV     2   -->   2 G_2            
     e( 17 - 18) =      3.75967  eV     2   -->   2 G_2            
     e( 19 - 20) =      7.67322  eV     2   -->   2 G_2            
     e( 21 - 22) =      8.01399  eV     2   -->   2 G_2            
     e( 23 - 24) =     15.65120  eV     2   -->   2 G_2            
     e( 25 - 26) =     15.71468  eV     2   -->   2 G_2            

 **************************************************************************

 **************************************************************************

                    xk=(  -0.95000,   0.00000,   0.00000  )

     Band symmetry, C_1 (1)     double point group:

     e(  1 -  2) =     -8.81989  eV     2   -->   2 G_2            
     e(  3 -  4) =     -8.77019  eV     2   -->   2 G_2            
     e(  5 -  6) =     -8.37698  eV     2   -->   2 G_2            
     e(  7 -  8) =     -8.31109  eV     2   -->   2 G_2            
     e(  9 - 10) =     -8.29822  eV     2   -->   2 G_2            
     e( 11 - 12) =     -3.92104  eV     2   -->   2 G_2            
     e( 13 - 14) =     -0.37361  eV     2   -->   2 G_2            
     e( 15 - 16) =      3.64540  eV     2   -->   2 G_2            
     e( 17 - 18) =      3.72996  eV     2   -->   2 G_2            
     e( 19 - 20) =      7.70662  eV     2   -->   2 G_2            
     e( 21 - 22) =      7.90664  eV     2   -->   2 G_2            
     e( 23 - 24) =     15.86270  eV     2   -->   2 G_2            
     e( 25 - 26) =     15.91978  eV     2   -->   2 G_2            

 **************************************************************************

 **************************************************************************

                    xk=(  -1.00000,   0.00000,   0.00000  )

     Band symmetry, C_1 (1)     double point group:

     e(  1 -  2) =     -8.82010  eV     2   -->   2 G_2            
     e(  3 -  4) =     -8.77010  eV     2   -->   2 G_2            
     e(  5 -  6) =     -8.37709  eV     2   -->   2 G_2            
     e(  7 -  8) =     -8.31108  eV     2   -->   2 G_2            
     e(  9 - 10) =     -8.29806  eV     2   -->   2 G_2            
     e( 11 - 12) =     -3.89341  eV     2   -->   2 G_2            
     e( 13 - 14) =     -0.41250  eV     2   -->   2 G_2            
     e( 15 - 16) =      3.63569  eV     2   -->   2 G_2            
     e( 17 - 18) =      3.72004  eV     2   -->   2 G_2            
     e( 19 - 20) =      7.73410  eV     2   -->   2 G_2            
     e( 21 - 22) =      7.85439  eV     2   -->   2 G_2            
     e( 23 - 24) =     15.94071  eV     2   -->   2 G_2            
     e( 25 - 26) =     15.99390  eV     2   -->   2 G_2            

 **************************************************************************

 **************************************************************************

                    xk=(  -0.98750,   0.03750,   0.00000  )

     Band symmetry, C_1 (1)     double point group:

     e(  1 -  1) =     -8.82233  eV     1   --> G_2            
     e(  2 -  2) =     -8.81778  eV     1   --> G_2            
     e(  3 -  3) =     -8.77055  eV     1   --> G_2            
     e(  4 -  4) =     -8.76961  eV     1   --> G_2            
     e(  5 -  5) =     -8.38076  eV     1   --> G_2            
     e(  6 -  6) =     -8.37341  eV     1   --> G_2            
     e(  7 -  7) =     -8.31161  eV     1   --> G_2            
     e(  8 -  8) =     -8.31049  eV     1   --> G_2            
     e(  9 -  9) =     -8.29915  eV     1   --> G_2            
     e( 10 - 10) =     -8.29718  eV     1   --> G_2            
     e( 11 - 11) =     -3.89455  eV     1   --> G_2            
     e( 12 - 12) =     -3.89443  eV     1   --> G_2            
     e( 13 - 13) =     -0.41063  eV     1   --> G_2            
     e( 14 - 14) =     -0.40543  eV     1   --> G_2            
     e( 15 - 15) =      3.61632  eV     1   --> G_2            
     e( 16 - 16) =      3.63256  eV     1   --> G_2            
     e( 17 - 17) =      3.70465  eV     1   --> G_2            
     e( 18 - 18) =      3.71221  eV     1   --> G_2            
     e( 19 - 19) =      7.75502  eV     1   --> G_2            
     e( 20 - 20) =      7.76139  eV     1   --> G_2            
     e( 21 - 21) =      7.87872  eV     1   --> G_2            
     e( 22 - 22) =      7.89213  eV     1   --> G_2            
     e( 23 - 23) =     15.84862  eV     1   --> G_2            
     e( 24 - 24) =     15.90957  eV     1   --> G_2            
     e( 25 - 25) =     15.92785  eV     1   --> G_2            
     e( 26 - 26) =     15.95410  eV     1   --> G_2            

 **************************************************************************

 **************************************************************************

                    xk=(  -0.97500,   0.07500,   0.00000  )

     Band symmetry, C_1 (1)     double point group:

     e(  1 -  1) =     -8.82445  eV     1   --> G_2            
     e(  2 -  2) =     -8.81545  eV     1   --> G_2            
     e(  3 -  3) =     -8.77096  eV     1   --> G_2            
     e(  4 -  4) =     -8.76911  eV     1   --> G_2            
     e(  5 -  5) =     -8.38442  eV     1   --> G_2            
     e(  6 -  6) =     -8.36977  eV     1   --> G_2            
     e(  7 -  7) =     -8.31211  eV     1   --> G_2            
     e(  8 -  8) =     -8.30985  eV     1   --> G_2            
     e(  9 -  9) =     -8.30048  eV     1   --> G_2            
     e( 10 - 10) =     -8.29654  eV     1   --> G_2            
     e( 11 - 11) =     -3.89780  eV     1   --> G_2            
     e( 12 - 12) =     -3.89758  eV     1   --> G_2            
     e( 13 - 13) =     -0.40007  eV     1   --> G_2            
     e( 14 - 14) =     -0.38969  eV     1   --> G_2            
     e( 15 - 15) =      3.57527  eV     1   --> G_2            
     e( 16 - 16) =      3.60817  eV     1   --> G_2            
     e( 17 - 17) =      3.66773  eV     1   --> G_2            
     e( 18 - 18) =      3.68261  eV     1   --> G_2            
     e( 19 - 19) =      7.82573  eV     1   --> G_2            
     e( 20 - 20) =      7.83607  eV     1   --> G_2            
     e( 21 - 21) =      7.96364  eV     1   --> G_2            
     e( 22 - 22) =      7.98762  eV     1   --> G_2            
     e( 23 - 23) =     15.64217  eV     1   --> G_2            
     e( 24 - 24) =     15.69849  eV     1   --> G_2            
     e( 25 - 25) =     15.79087  eV     1   --> G_2            
     e( 26 - 26) =     15.83537  eV     1   --> G_2            

 **************************************************************************

 **************************************************************************

                    xk=(  -0.96250,   0.11250,   0.00000  )

     Band symmetry, C_1 (1)     double point group:

     e(  1 -  1) =     -8.82644  eV     1   --> G_2            
     e(  2 -  2) =     -8.81313  eV     1   --> G_2            
     e(  3 -  3) =     -8.77130  eV     1   --> G_2            
     e(  4 -  4) =     -8.76860  eV     1   --> G_2            
     e(  5 -  5) =     -8.38802  eV     1   --> G_2            
     e(  6 -  6) =     -8.36617  eV     1   --> G_2            
     e(  7 -  7) =     -8.31256  eV     1   --> G_2            
     e(  8 -  8) =     -8.30916  eV     1   --> G_2            
     e(  9 -  9) =     -8.30204  eV     1   --> G_2            
     e( 10 - 10) =     -8.29611  eV     1   --> G_2            
     e( 11 - 11) =     -3.90295  eV     1   --> G_2            
     e( 12 - 12) =     -3.90264  eV     1   --> G_2            
     e( 13 - 13) =     -0.38164  eV     1   --> G_2            
     e( 14 - 14) =     -0.36610  eV     1   --> G_2            
     e( 15 - 15) =      3.51463  eV     1   --> G_2            
     e( 16 - 16) =      3.56574  eV     1   --> G_2            
     e( 17 - 17) =      3.61240  eV     1   --> G_2            
     e( 18 - 18) =      3.63706  eV     1   --> G_2            
     e( 19 - 19) =      7.94575  eV     1   --> G_2            
     e( 20 - 20) =      7.95821  eV     1   --> G_2            
     e( 21 - 21) =      8.10235  eV     1   --> G_2            
     e( 22 - 22) =      8.13410  eV     1   --> G_2            
     e( 23 - 23) =     15.31038  eV     1   --> G_2            
     e( 24 - 24) =     15.34592  eV     1   --> G_2            
     e( 25 - 25) =     15.60986  eV     1   --> G_2            
     e( 26 - 26) =     15.66352  eV     1   --> G_2            

 **************************************************************************

 **************************************************************************

                    xk=(  -0.95000,   0.15000,   0.00000  )

     Band symmetry, C_1 (1)     double point group:

     e(  1 -  1) =     -8.82826  eV     1   --> G_2            
     e(  2 -  2) =     -8.81087  eV     1   --> G_2            
     e(  3 -  3) =     -8.77158  eV     1   --> G_2            
     e(  4 -  4) =     -8.76811  eV     1   --> G_2            
     e(  5 -  5) =     -8.39152  eV     1   --> G_2            
     e(  6 -  6) =     -8.36262  eV     1   --> G_2            
     e(  7 -  7) =     -8.31297  eV     1   --> G_2            
     e(  8 -  8) =     -8.30843  eV     1   --> G_2            
     e(  9 -  9) =     -8.30379  eV     1   --> G_2            
     e( 10 - 10) =     -8.29589  eV     1   --> G_2            
     e( 11 - 11) =     -3.90969  eV     1   --> G_2            
     e( 12 - 12) =     -3.90932  eV     1   --> G_2            
     e( 13 - 13) =     -0.35664  eV     1   --> G_2            
     e( 14 - 14) =     -0.33599  eV     1   --> G_2            
     e( 15 - 15) =      3.43733  eV     1   --> G_2            
     e( 16 - 16) =      3.50701  eV     1   --> G_2            
     e( 17 - 17) =      3.54584  eV     1   --> G_2            
     e( 18 - 18) =      3.58385  eV     1   --> G_2            
     e( 19 - 19) =      8.11196  eV     1   --> G_2            
     e( 20 - 20) =      8.12621  eV     1   --> G_2            
     e( 21 - 21) =      8.28668  eV     1   --> G_2            
     e( 22 - 22) =      8.32446  eV     1   --> G_2            
     e( 23 - 23) =     14.88466  eV     1   --> G_2            
     e( 24 - 24) =     14.90374  eV     1   --> G_2            
     e( 25 - 25) =     15.40092  eV     1   --> G_2            
     e( 26 - 26) =     15.45585  eV     1   --> G_2            

 **************************************************************************

 **************************************************************************

                    xk=(  -0.93750,   0.18750,   0.00000  )

     Band symmetry, C_1 (1)     double point group:

     e(  1 -  1) =     -8.82989  eV     1   --> G_2            
     e(  2 -  2) =     -8.80872  eV     1   --> G_2            
     e(  3 -  3) =     -8.77177  eV     1   --> G_2            
     e(  4 -  4) =     -8.76764  eV     1   --> G_2            
     e(  5 -  5) =     -8.39486  eV     1   --> G_2            
     e(  6 -  6) =     -8.35913  eV     1   --> G_2            
     e(  7 -  7) =     -8.31338  eV     1   --> G_2            
     e(  8 -  8) =     -8.30780  eV     1   --> G_2            
     e(  9 -  9) =     -8.30559  eV     1   --> G_2            
     e( 10 - 10) =     -8.29585  eV     1   --> G_2            
     e( 11 - 11) =     -3.91763  eV     1   --> G_2            
     e( 12 - 12) =     -3.91724  eV     1   --> G_2            
     e( 13 - 13) =     -0.32679  eV     1   --> G_2            
     e( 14 - 14) =     -0.30113  eV     1   --> G_2            
     e( 15 - 15) =      3.34720  eV     1   --> G_2            
     e( 16 - 16) =      3.42744  eV     1   --> G_2            
     e( 17 - 17) =      3.48413  eV     1   --> G_2            
     e( 18 - 18) =      3.53028  eV     1   --> G_2            
     e( 19 - 19) =      8.31972  eV     1   --> G_2            
     e( 20 - 20) =      8.33640  eV     1   --> G_2            
     e( 21 - 21) =      8.50914  eV     1   --> G_2            
     e( 22 - 22) =      8.55191  eV     1   --> G_2            
     e( 23 - 23) =     14.40416  eV     1   --> G_2            
     e( 24 - 24) =     14.41143  eV     1   --> G_2            
     e( 25 - 25) =     15.16944  eV     1   --> G_2            
     e( 26 - 26) =     15.22120  eV     1   --> G_2            

 **************************************************************************

 **************************************************************************

                    xk=(  -0.92500,   0.22500,   0.00000  )

     Band symmetry, C_1 (1)     double point group:

     e(  1 -  1) =     -8.83132  eV     1   --> G_2            
     e(  2 -  2) =     -8.80674  eV     1   --> G_2            
     e(  3 -  3) =     -8.77190  eV     1   --> G_2            
     e(  4 -  4) =     -8.76722  eV     1   --> G_2            
     e(  5 -  5) =     -8.39798  eV     1   --> G_2            
     e(  6 -  6) =     -8.35570  eV     1   --> G_2            
     e(  7 -  7) =     -8.31382  eV     1   --> G_2            
     e(  8 -  8) =     -8.30845  eV     1   --> G_2            
     e(  9 -  9) =     -8.30623  eV     1   --> G_2            
     e( 10 - 10) =     -8.29598  eV     1   --> G_2            
     e( 11 - 11) =     -3.92633  eV     1   --> G_2            
     e( 12 - 12) =     -3.92594  eV     1   --> G_2            
     e( 13 - 13) =     -0.29419  eV     1   --> G_2            
     e( 14 - 14) =     -0.26366  eV     1   --> G_2            
     e( 15 - 15) =      3.24868  eV     1   --> G_2            
     e( 16 - 16) =      3.33170  eV     1   --> G_2            
     e( 17 - 17) =      3.43446  eV     1   --> G_2            
     e( 18 - 18) =      3.48233  eV     1   --> G_2            
     e( 19 - 19) =      8.56376  eV     1   --> G_2            
     e( 20 - 20) =      8.58396  eV     1   --> G_2            
     e( 21 - 21) =      8.76310  eV     1   --> G_2            
     e( 22 - 22) =      8.81010  eV     1   --> G_2            
     e( 23 - 23) =     13.89346  eV     1   --> G_2            
     e( 24 - 24) =     13.89666  eV     1   --> G_2            
     e( 25 - 25) =     14.91964  eV     1   --> G_2            
     e( 26 - 26) =     14.96588  eV     1   --> G_2            

 **************************************************************************

 **************************************************************************

                    xk=(  -0.91250,   0.26250,   0.00000  )

     Band symmetry, C_1 (1)     double point group:

     e(  1 -  1) =     -8.83254  eV     1   --> G_2            
     e(  2 -  2) =     -8.80497  eV     1   --> G_2            
     e(  3 -  3) =     -8.77196  eV     1   --> G_2            
     e(  4 -  4) =     -8.76684  eV     1   --> G_2            
     e(  5 -  5) =     -8.40082  eV     1   --> G_2            
     e(  6 -  6) =     -8.35235  eV     1   --> G_2            
     e(  7 -  7) =     -8.31438  eV     1   --> G_2            
     e(  8 -  8) =     -8.31045  eV     1   --> G_2            
     e(  9 -  9) =     -8.30552  eV     1   --> G_2            
     e( 10 - 10) =     -8.29624  eV     1   --> G_2            
     e( 11 - 11) =     -3.93532  eV     1   --> G_2            
     e( 12 - 12) =     -3.93496  eV     1   --> G_2            
     e( 13 - 13) =     -0.26112  eV     1   --> G_2            
     e( 14 - 14) =     -0.22594  eV     1   --> G_2            
     e( 15 - 15) =      3.14615  eV     1   --> G_2            
     e( 16 - 16) =      3.22919  eV     1   --> G_2            
     e( 17 - 17) =      3.39792  eV     1   --> G_2            
     e( 18 - 18) =      3.44521  eV     1   --> G_2            
     e( 19 - 19) =      8.83848  eV     1   --> G_2            
     e( 20 - 20) =      8.86383  eV     1   --> G_2            
     e( 21 - 21) =      9.04271  eV     1   --> G_2            
     e( 22 - 22) =      9.09292  eV     1   --> G_2            
     e( 23 - 23) =     13.36763  eV     1   --> G_2            
     e( 24 - 24) =     13.37837  eV     1   --> G_2            
     e( 25 - 25) =     14.65608  eV     1   --> G_2            
     e( 26 - 26) =     14.69566  eV     1   --> G_2            

 **************************************************************************

 **************************************************************************

                    xk=(  -0.90000,   0.30000,   0.00000  )

     Band symmetry, C_1 (1)     double point group:

     e(  1 -  1) =     -8.83356  eV     1   --> G_2            
     e(  2 -  2) =     -8.80345  eV     1   --> G_2            
     e(  3 -  3) =     -8.77198  eV     1   --> G_2            
     e(  4 -  4) =     -8.76651  eV     1   --> G_2            
     e(  5 -  5) =     -8.40332  eV     1   --> G_2            
     e(  6 -  6) =     -8.34911  eV     1   --> G_2            
     e(  7 -  7) =     -8.31540  eV     1   --> G_2            
     e(  8 -  8) =     -8.31229  eV     1   --> G_2            
     e(  9 -  9) =     -8.30463  eV     1   --> G_2            
     e( 10 - 10) =     -8.29662  eV     1   --> G_2            
     e( 11 - 11) =     -3.94414  eV     1   --> G_2            
     e( 12 - 12) =     -3.94382  eV     1   --> G_2            
     e( 13 - 13) =     -0.22990  eV     1   --> G_2            
     e( 14 - 14) =     -0.19040  eV     1   --> G_2            
     e( 15 - 15) =      3.04352  eV     1   --> G_2            
     e( 16 - 16) =      3.12554  eV     1   --> G_2            
     e( 17 - 17) =      3.37760  eV     1   --> G_2            
     e( 18 - 18) =      3.42338  eV     1   --> G_2            
     e( 19 - 19) =      9.13734  eV     1   --> G_2            
     e( 20 - 20) =      9.17090  eV     1   --> G_2            
     e( 21 - 21) =      9.34264  eV     1   --> G_2            
     e( 22 - 22) =      9.39410  eV     1   --> G_2            
     e( 23 - 23) =     12.84460  eV     1   --> G_2            
     e( 24 - 24) =     12.86364  eV     1   --> G_2            
     e( 25 - 25) =     14.38365  eV     1   --> G_2            
     e( 26 - 26) =     14.41621  eV     1   --> G_2            

 **************************************************************************

 **************************************************************************

                    xk=(  -0.88750,   0.33750,   0.00000  )

     Band symmetry, C_1 (1)     double point group:

     e(  1 -  1) =     -8.83434  eV     1   --> G_2            
     e(  2 -  2) =     -8.80218  eV     1   --> G_2            
     e(  3 -  3) =     -8.77198  eV     1   --> G_2            
     e(  4 -  4) =     -8.76621  eV     1   --> G_2            
     e(  5 -  5) =     -8.40540  eV     1   --> G_2            
     e(  6 -  6) =     -8.34597  eV     1   --> G_2            
     e(  7 -  7) =     -8.31731  eV     1   --> G_2            
     e(  8 -  8) =     -8.31336  eV     1   --> G_2            
     e(  9 -  9) =     -8.30368  eV     1   --> G_2            
     e( 10 - 10) =     -8.29708  eV     1   --> G_2            
     e( 11 - 11) =     -3.95233  eV     1   --> G_2            
     e( 12 - 12) =     -3.95208  eV     1   --> G_2            
     e( 13 - 13) =     -0.20265  eV     1   --> G_2            
     e( 14 - 14) =     -0.15926  eV     1   --> G_2            
     e( 15 - 15) =      2.94405  eV     1   --> G_2            
     e( 16 - 16) =      3.02457  eV     1   --> G_2            
     e( 17 - 17) =      3.37650  eV     1   --> G_2            
     e( 18 - 18) =      3.42026  eV     1   --> G_2            
     e( 19 - 19) =      9.45051  eV     1   --> G_2            
     e( 20 - 20) =      9.49928  eV     1   --> G_2            
     e( 21 - 21) =      9.65834  eV     1   --> G_2            
     e( 22 - 22) =      9.70628  eV     1   --> G_2            
     e( 23 - 23) =     12.33596  eV     1   --> G_2            
     e( 24 - 24) =     12.36518  eV     1   --> G_2            
     e( 25 - 25) =     14.10748  eV     1   --> G_2            
     e( 26 - 26) =     14.13349  eV     1   --> G_2            

 **************************************************************************

 **************************************************************************

                    xk=(  -0.87500,   0.37500,   0.00000  )

     Band symmetry, C_1 (1)     double point group:

     e(  1 -  1) =     -8.83493  eV     1   --> G_2            
     e(  2 -  2) =     -8.80121  eV     1   --> G_2            
     e(  3 -  3) =     -8.77200  eV     1   --> G_2            
     e(  4 -  4) =     -8.76594  eV     1   --> G_2            
     e(  5 -  5) =     -8.40705  eV     1   --> G_2            
     e(  6 -  6) =     -8.34301  eV     1   --> G_2            
     e(  7 -  7) =     -8.31979  eV     1   --> G_2            
     e(  8 -  8) =     -8.31389  eV     1   --> G_2            
     e(  9 -  9) =     -8.30273  eV     1   --> G_2            
     e( 10 - 10) =     -8.29760  eV     1   --> G_2            
     e( 11 - 11) =     -3.95952  eV     1   --> G_2            
     e( 12 - 12) =     -3.95932  eV     1   --> G_2            
     e( 13 - 13) =     -0.18112  eV     1   --> G_2            
     e( 14 - 14) =     -0.13440  eV     1   --> G_2            
     e( 15 - 15) =      2.85043  eV     1   --> G_2            
     e( 16 - 16) =      2.92920  eV     1   --> G_2            
     e( 17 - 17) =      3.39663  eV     1   --> G_2            
     e( 18 - 18) =      3.43806  eV     1   --> G_2            
     e( 19 - 19) =      9.75731  eV     1   --> G_2            
     e( 20 - 20) =      9.83748  eV     1   --> G_2            
     e( 21 - 21) =      9.98693  eV     1   --> G_2            
     e( 22 - 22) =     10.02096  eV     1   --> G_2            
     e( 23 - 23) =     11.85893  eV     1   --> G_2            
     e( 24 - 24) =     11.90233  eV     1   --> G_2            
     e( 25 - 25) =     13.83285  eV     1   --> G_2            
     e( 26 - 26) =     13.85440  eV     1   --> G_2            

 **************************************************************************

 **************************************************************************

                    xk=(  -0.86250,   0.41250,   0.00000  )

     Band symmetry, C_1 (1)     double point group:

     e(  1 -  1) =     -8.83530  eV     1   --> G_2            
     e(  2 -  2) =     -8.80052  eV     1   --> G_2            
     e(  3 -  3) =     -8.77208  eV     1   --> G_2            
     e(  4 -  4) =     -8.76569  eV     1   --> G_2            
     e(  5 -  5) =     -8.40822  eV     1   --> G_2            
     e(  6 -  6) =     -8.34032  eV     1   --> G_2            
     e(  7 -  7) =     -8.32237  eV     1   --> G_2            
     e(  8 -  8) =     -8.31423  eV     1   --> G_2            
     e(  9 -  9) =     -8.30181  eV     1   --> G_2            
     e( 10 - 10) =     -8.29815  eV     1   --> G_2            
     e( 11 - 11) =     -3.96534  eV     1   --> G_2            
     e( 12 - 12) =     -3.96519  eV     1   --> G_2            
     e( 13 - 13) =     -0.16645  eV     1   --> G_2            
     e( 14 - 14) =     -0.11705  eV     1   --> G_2            
     e( 15 - 15) =      2.76482  eV     1   --> G_2            
     e( 16 - 16) =      2.84170  eV     1   --> G_2            
     e( 17 - 17) =      3.43867  eV     1   --> G_2            
     e( 18 - 18) =      3.47754  eV     1   --> G_2            
     e( 19 - 19) =     10.00592  eV     1   --> G_2            
     e( 20 - 20) =     10.13589  eV     1   --> G_2            
     e( 21 - 21) =     10.32215  eV     1   --> G_2            
     e( 22 - 22) =     10.34778  eV     1   --> G_2            
     e( 23 - 23) =     11.45618  eV     1   --> G_2            
     e( 24 - 24) =     11.51897  eV     1   --> G_2            
     e( 25 - 25) =     13.56576  eV     1   --> G_2            
     e( 26 - 26) =     13.58819  eV     1   --> G_2            

 **************************************************************************

 **************************************************************************

                    xk=(  -0.85000,   0.45000,   0.00000  )

     Band symmetry, C_1 (1)     double point group:

     e(  1 -  1) =     -8.83549  eV     1   --> G_2            
     e(  2 -  2) =     -8.80010  eV     1   --> G_2            
     e(  3 -  3) =     -8.77224  eV     1   --> G_2            
     e(  4 -  4) =     -8.76544  eV     1   --> G_2            
     e(  5 -  5) =     -8.40890  eV     1   --> G_2            
     e(  6 -  6) =     -8.33815  eV     1   --> G_2            
     e(  7 -  7) =     -8.32465  eV     1   --> G_2            
     e(  8 -  8) =     -8.31448  eV     1   --> G_2            
     e(  9 -  9) =     -8.30096  eV     1   --> G_2            
     e( 10 - 10) =     -8.29868  eV     1   --> G_2            
     e( 11 - 11) =     -3.96951  eV     1   --> G_2            
     e( 12 - 12) =     -3.96939  eV     1   --> G_2            
     e( 13 - 13) =     -0.15912  eV     1   --> G_2            
     e( 14 - 14) =     -0.10777  eV     1   --> G_2            
     e( 15 - 15) =      2.68895  eV     1   --> G_2            
     e( 16 - 16) =      2.76384  eV     1   --> G_2            
     e( 17 - 17) =      3.50176  eV     1   --> G_2            
     e( 18 - 18) =      3.53789  eV     1   --> G_2            
     e( 19 - 19) =     10.08322  eV     1   --> G_2            
     e( 20 - 20) =     10.22211  eV     1   --> G_2            
     e( 21 - 21) =     10.67837  eV     1   --> G_2            
     e( 22 - 22) =     10.71330  eV     1   --> G_2            
     e( 23 - 23) =     11.24681  eV     1   --> G_2            
     e( 24 - 24) =     11.32084  eV     1   --> G_2            
     e( 25 - 25) =     13.31639  eV     1   --> G_2            
     e( 26 - 26) =     13.34715  eV     1   --> G_2            

 **************************************************************************

 **************************************************************************

                    xk=(  -0.83750,   0.48750,   0.00000  )

     Band symmetry, C_1 (1)     double point group:

     e(  1 -  1) =     -8.83550  eV     1   --> G_2            
     e(  2 -  2) =     -8.79996  eV     1   --> G_2            
     e(  3 -  3) =     -8.77248  eV     1   --> G_2            
     e(  4 -  4) =     -8.76520  eV     1   --> G_2            
     e(  5 -  5) =     -8.40912  eV     1   --> G_2            
     e(  6 -  6) =     -8.33704  eV     1   --> G_2            
     e(  7 -  7) =     -8.32604  eV     1   --> G_2            
     e(  8 -  8) =     -8.31468  eV     1   --> G_2            
     e(  9 -  9) =     -8.30039  eV     1   --> G_2            
     e( 10 - 10) =     -8.29902  eV     1   --> G_2            
     e( 11 - 12) =     -3.97179  eV     2   -->   2 G_2            
     e( 13 - 13) =     -0.15894  eV     1   --> G_2            
     e( 14 - 14) =     -0.10637  eV     1   --> G_2            
     e( 15 - 15) =      2.62419  eV     1   --> G_2            
     e( 16 - 16) =      2.69704  eV     1   --> G_2            
     e( 17 - 17) =      3.58340  eV     1   --> G_2            
     e( 18 - 18) =      3.61656  eV     1   --> G_2            
     e( 19 - 19) =      9.90799  eV     1   --> G_2            
     e( 20 - 20) =     10.00403  eV     1   --> G_2            
     e( 21 - 21) =     11.05606  eV     1   --> G_2            
     e( 22 - 22) =     11.09038  eV     1   --> G_2            
     e( 23 - 23) =     11.31565  eV     1   --> G_2            
     e( 24 - 24) =     11.38564  eV     1   --> G_2            
     e( 25 - 25) =     13.10530  eV     1   --> G_2            
     e( 26 - 26) =     13.15003  eV     1   --> G_2            

 **************************************************************************

 **************************************************************************

                    xk=(  -0.82500,   0.52500,   0.00000  )

     Band symmetry, C_1 (1)     double point group:

     e(  1 -  1) =     -8.83537  eV     1   --> G_2            
     e(  2 -  2) =     -8.80004  eV     1   --> G_2            
     e(  3 -  3) =     -8.77277  eV     1   --> G_2            
     e(  4 -  4) =     -8.76496  eV     1   --> G_2            
     e(  5 -  5) =     -8.40890  eV     1   --> G_2            
     e(  6 -  6) =     -8.33754  eV     1   --> G_2            
     e(  7 -  7) =     -8.32591  eV     1   --> G_2            
     e(  8 -  8) =     -8.31484  eV     1   --> G_2            
     e(  9 -  9) =     -8.30048  eV     1   --> G_2            
     e( 10 - 10) =     -8.29875  eV     1   --> G_2            
     e( 11 - 11) =     -3.97202  eV     1   --> G_2            
     e( 12 - 12) =     -3.97192  eV     1   --> G_2            
     e( 13 - 13) =     -0.16516  eV     1   --> G_2            
     e( 14 - 14) =     -0.11208  eV     1   --> G_2            
     e( 15 - 15) =      2.57161  eV     1   --> G_2            
[...]
     e(  2 -  2) =     -8.79678  eV     1   --> G_2            
     e(  3 -  3) =     -8.78032  eV     1   --> G_2            
     e(  4 -  4) =     -8.77868  eV     1   --> G_2            
     e(  5 -  5) =     -8.38101  eV     1   --> G_2            
     e(  6 -  6) =     -8.34995  eV     1   --> G_2            
     e(  7 -  7) =     -8.32761  eV     1   --> G_2            
     e(  8 -  8) =     -8.31867  eV     1   --> G_2            
     e(  9 -  9) =     -8.30526  eV     1   --> G_2            
     e( 10 - 10) =     -8.30243  eV     1   --> G_2            
     e( 11 - 11) =     -5.24939  eV     1   --> G_2            
     e( 12 - 12) =     -5.24605  eV     1   --> G_2            
     e( 13 - 13) =      1.69215  eV     1   --> G_2            
     e( 14 - 14) =      1.72633  eV     1   --> G_2            
     e( 15 - 15) =      3.86593  eV     1   --> G_2            
     e( 16 - 16) =      3.92723  eV     1   --> G_2            
     e( 17 - 17) =      5.55618  eV     1   --> G_2            
     e( 18 - 18) =      5.55677  eV     1   --> G_2            
     e( 19 - 19) =      8.64774  eV     1   --> G_2            
     e( 20 - 20) =      8.70971  eV     1   --> G_2            
     e( 21 - 21) =     10.81425  eV     1   --> G_2            
     e( 22 - 22) =     10.86464  eV     1   --> G_2            
     e( 23 - 23) =     10.93334  eV     1   --> G_2            
     e( 24 - 24) =     10.93363  eV     1   --> G_2            
     e( 25 - 25) =     11.72821  eV     1   --> G_2            
     e( 26 - 26) =     11.75384  eV     1   --> G_2            

 **************************************************************************

 **************************************************************************

                    xk=(  -0.33750,   0.33750,   0.00000  )

     Band symmetry, C_1 (1)     double point group:

     e(  1 -  1) =     -8.80647  eV     1   --> G_2            
     e(  2 -  2) =     -8.79595  eV     1   --> G_2            
     e(  3 -  3) =     -8.78110  eV     1   --> G_2            
     e(  4 -  4) =     -8.78078  eV     1   --> G_2            
     e(  5 -  5) =     -8.37674  eV     1   --> G_2            
     e(  6 -  6) =     -8.35208  eV     1   --> G_2            
     e(  7 -  7) =     -8.32576  eV     1   --> G_2            
     e(  8 -  8) =     -8.31845  eV     1   --> G_2            
     e(  9 -  9) =     -8.30678  eV     1   --> G_2            
     e( 10 - 10) =     -8.30340  eV     1   --> G_2            
     e( 11 - 11) =     -5.41156  eV     1   --> G_2            
     e( 12 - 12) =     -5.40865  eV     1   --> G_2            
     e( 13 - 13) =      2.06840  eV     1   --> G_2            
     e( 14 - 14) =      2.09979  eV     1   --> G_2            
     e( 15 - 15) =      4.16627  eV     1   --> G_2            
     e( 16 - 16) =      4.22657  eV     1   --> G_2            
     e( 17 - 17) =      5.68672  eV     1   --> G_2            
     e( 18 - 18) =      5.68775  eV     1   --> G_2            
     e( 19 - 19) =      8.54241  eV     1   --> G_2            
     e( 20 - 20) =      8.60682  eV     1   --> G_2            
     e( 21 - 21) =     10.58475  eV     1   --> G_2            
     e( 22 - 22) =     10.63802  eV     1   --> G_2            
     e( 23 - 23) =     10.73450  eV     1   --> G_2            
     e( 24 - 24) =     10.73587  eV     1   --> G_2            
     e( 25 - 25) =     11.73029  eV     1   --> G_2            
     e( 26 - 26) =     11.75376  eV     1   --> G_2            

 **************************************************************************

 **************************************************************************

                    xk=(  -0.30000,   0.30000,   0.00000  )

     Band symmetry, C_1 (1)     double point group:

     e(  1 -  1) =     -8.80265  eV     1   --> G_2            
     e(  2 -  2) =     -8.79506  eV     1   --> G_2            
     e(  3 -  3) =     -8.78270  eV     1   --> G_2            
     e(  4 -  4) =     -8.78193  eV     1   --> G_2            
     e(  5 -  5) =     -8.37267  eV     1   --> G_2            
     e(  6 -  6) =     -8.35392  eV     1   --> G_2            
     e(  7 -  7) =     -8.32387  eV     1   --> G_2            
     e(  8 -  8) =     -8.31810  eV     1   --> G_2            
     e(  9 -  9) =     -8.30829  eV     1   --> G_2            
     e( 10 - 10) =     -8.30446  eV     1   --> G_2            
     e( 11 - 11) =     -5.56313  eV     1   --> G_2            
     e( 12 - 12) =     -5.56073  eV     1   --> G_2            
     e( 13 - 13) =      2.47145  eV     1   --> G_2            
     e( 14 - 14) =      2.50020  eV     1   --> G_2            
     e( 15 - 15) =      4.47500  eV     1   --> G_2            
     e( 16 - 16) =      4.53433  eV     1   --> G_2            
     e( 17 - 17) =      5.80329  eV     1   --> G_2            
     e( 18 - 18) =      5.80496  eV     1   --> G_2            
     e( 19 - 19) =      8.41717  eV     1   --> G_2            
     e( 20 - 20) =      8.48164  eV     1   --> G_2            
     e( 21 - 21) =     10.38479  eV     1   --> G_2            
     e( 22 - 22) =     10.43792  eV     1   --> G_2            
     e( 23 - 23) =     10.55763  eV     1   --> G_2            
     e( 24 - 24) =     10.56000  eV     1   --> G_2            
     e( 25 - 25) =     11.67303  eV     1   --> G_2            
     e( 26 - 26) =     11.69327  eV     1   --> G_2            

 **************************************************************************

 **************************************************************************

                    xk=(  -0.26250,   0.26250,   0.00000  )

     Band symmetry, C_1 (1)     double point group:

     e(  1 -  1) =     -8.79910  eV     1   --> G_2            
     e(  2 -  2) =     -8.79409  eV     1   --> G_2            
     e(  3 -  3) =     -8.78438  eV     1   --> G_2            
     e(  4 -  4) =     -8.78278  eV     1   --> G_2            
     e(  5 -  5) =     -8.36892  eV     1   --> G_2            
     e(  6 -  6) =     -8.35543  eV     1   --> G_2            
     e(  7 -  7) =     -8.32196  eV     1   --> G_2            
     e(  8 -  8) =     -8.31755  eV     1   --> G_2            
     e(  9 -  9) =     -8.30972  eV     1   --> G_2            
     e( 10 - 10) =     -8.30561  eV     1   --> G_2            
     e( 11 - 11) =     -5.70169  eV     1   --> G_2            
     e( 12 - 12) =     -5.69983  eV     1   --> G_2            
     e( 13 - 13) =      2.89885  eV     1   --> G_2            
     e( 14 - 14) =      2.92509  eV     1   --> G_2            
     e( 15 - 15) =      4.78499  eV     1   --> G_2            
     e( 16 - 16) =      4.84320  eV     1   --> G_2            
     e( 17 - 17) =      5.90477  eV     1   --> G_2            
     e( 18 - 18) =      5.90731  eV     1   --> G_2            
     e( 19 - 19) =      8.27494  eV     1   --> G_2            
     e( 20 - 20) =      8.33699  eV     1   --> G_2            
     e( 21 - 21) =     10.21606  eV     1   --> G_2            
     e( 22 - 22) =     10.26717  eV     1   --> G_2            
     e( 23 - 23) =     10.40246  eV     1   --> G_2            
     e( 24 - 24) =     10.40582  eV     1   --> G_2            
     e( 25 - 25) =     11.52171  eV     1   --> G_2            
     e( 26 - 26) =     11.53879  eV     1   --> G_2            

 **************************************************************************

 **************************************************************************

                    xk=(  -0.22500,   0.22500,   0.00000  )

     Band symmetry, C_1 (1)     double point group:

     e(  1 -  1) =     -8.79591  eV     1   --> G_2            
     e(  2 -  2) =     -8.79305  eV     1   --> G_2            
     e(  3 -  3) =     -8.78577  eV     1   --> G_2            
     e(  4 -  4) =     -8.78363  eV     1   --> G_2            
     e(  5 -  5) =     -8.36560  eV     1   --> G_2            
     e(  6 -  6) =     -8.35657  eV     1   --> G_2            
     e(  7 -  7) =     -8.32006  eV     1   --> G_2            
     e(  8 -  8) =     -8.31681  eV     1   --> G_2            
     e(  9 -  9) =     -8.31095  eV     1   --> G_2            
     e( 10 - 10) =     -8.30679  eV     1   --> G_2            
     e( 11 - 11) =     -5.82527  eV     1   --> G_2            
     e( 12 - 12) =     -5.82394  eV     1   --> G_2            
     e( 13 - 13) =      3.34792  eV     1   --> G_2            
     e( 14 - 14) =      3.37171  eV     1   --> G_2            
     e( 15 - 15) =      5.08759  eV     1   --> G_2            
     e( 16 - 16) =      5.14427  eV     1   --> G_2            
     e( 17 - 17) =      5.99108  eV     1   --> G_2            
     e( 18 - 18) =      5.99473  eV     1   --> G_2            
     e( 19 - 19) =      8.11442  eV     1   --> G_2            
     e( 20 - 20) =      8.17143  eV     1   --> G_2            
     e( 21 - 21) =     10.07984  eV     1   --> G_2            
     e( 22 - 22) =     10.12739  eV     1   --> G_2            
     e( 23 - 23) =     10.26895  eV     1   --> G_2            
     e( 24 - 24) =     10.27332  eV     1   --> G_2            
     e( 25 - 25) =     11.27174  eV     1   --> G_2            
     e( 26 - 26) =     11.28650  eV     1   --> G_2            

 **************************************************************************

 **************************************************************************

                    xk=(  -0.18750,   0.18750,   0.00000  )

     Band symmetry, C_1 (1)     double point group:

     e(  1 -  1) =     -8.79320  eV     1   --> G_2            
     e(  2 -  2) =     -8.79198  eV     1   --> G_2            
     e(  3 -  3) =     -8.78684  eV     1   --> G_2            
     e(  4 -  4) =     -8.78447  eV     1   --> G_2            
     e(  5 -  5) =     -8.36282  eV     1   --> G_2            
     e(  6 -  6) =     -8.35732  eV     1   --> G_2            
     e(  7 -  7) =     -8.31823  eV     1   --> G_2            
     e(  8 -  8) =     -8.31592  eV     1   --> G_2            
     e(  9 -  9) =     -8.31194  eV     1   --> G_2            
     e( 10 - 10) =     -8.30798  eV     1   --> G_2            
     e( 11 - 11) =     -5.93230  eV     1   --> G_2            
     e( 12 - 12) =     -5.93145  eV     1   --> G_2            
     e( 13 - 13) =      3.81547  eV     1   --> G_2            
     e( 14 - 14) =      3.83682  eV     1   --> G_2            
     e( 15 - 15) =      5.37222  eV     1   --> G_2            
     e( 16 - 16) =      5.42652  eV     1   --> G_2            
     e( 17 - 17) =      6.06333  eV     1   --> G_2            
     e( 18 - 18) =      6.06828  eV     1   --> G_2            
     e( 19 - 19) =      7.92944  eV     1   --> G_2            
     e( 20 - 20) =      7.97863  eV     1   --> G_2            
     e( 21 - 21) =      9.97650  eV     1   --> G_2            
     e( 22 - 22) =     10.01888  eV     1   --> G_2            
     e( 23 - 23) =     10.15750  eV     1   --> G_2            
     e( 24 - 24) =     10.16275  eV     1   --> G_2            
     e( 25 - 25) =     10.95499  eV     1   --> G_2            
     e( 26 - 26) =     10.96860  eV     1   --> G_2            

 **************************************************************************

 **************************************************************************

                    xk=(  -0.15000,   0.15000,   0.00000  )

     Band symmetry, C_1 (1)     double point group:

     e(  1 -  1) =     -8.79104  eV     1   --> G_2            
     e(  2 -  2) =     -8.79093  eV     1   --> G_2            
     e(  3 -  3) =     -8.78760  eV     1   --> G_2            
     e(  4 -  4) =     -8.78529  eV     1   --> G_2            
     e(  5 -  5) =     -8.36067  eV     1   --> G_2            
     e(  6 -  6) =     -8.35773  eV     1   --> G_2            
     e(  7 -  7) =     -8.31653  eV     1   --> G_2            
     e(  8 -  8) =     -8.31496  eV     1   --> G_2            
     e(  9 -  9) =     -8.31267  eV     1   --> G_2            
     e( 10 - 10) =     -8.30914  eV     1   --> G_2            
     e( 11 - 11) =     -6.02154  eV     1   --> G_2            
     e( 12 - 12) =     -6.02106  eV     1   --> G_2            
     e( 13 - 13) =      4.29746  eV     1   --> G_2            
     e( 14 - 14) =      4.31626  eV     1   --> G_2            
     e( 15 - 15) =      5.62615  eV     1   --> G_2            
     e( 16 - 16) =      5.67639  eV     1   --> G_2            
     e( 17 - 17) =      6.12424  eV     1   --> G_2            
     e( 18 - 18) =      6.13042  eV     1   --> G_2            
     e( 19 - 19) =      7.70908  eV     1   --> G_2            
     e( 20 - 20) =      7.74791  eV     1   --> G_2            
     e( 21 - 21) =      9.90413  eV     1   --> G_2            
     e( 22 - 22) =      9.93932  eV     1   --> G_2            
     e( 23 - 23) =     10.06926  eV     1   --> G_2            
     e( 24 - 24) =     10.07491  eV     1   --> G_2            
     e( 25 - 25) =     10.62282  eV     1   --> G_2            
     e( 26 - 26) =     10.63580  eV     1   --> G_2            

 **************************************************************************

 **************************************************************************

                    xk=(  -0.11250,   0.11250,   0.00000  )

     Band symmetry, C_1 (1)     double point group:

     e(  1 -  1) =     -8.78994  eV     1   --> G_2            
     e(  2 -  2) =     -8.78946  eV     1   --> G_2            
     e(  3 -  3) =     -8.78806  eV     1   --> G_2            
     e(  4 -  4) =     -8.78608  eV     1   --> G_2            
     e(  5 -  5) =     -8.35913  eV     1   --> G_2            
     e(  6 -  6) =     -8.35785  eV     1   --> G_2            
     e(  7 -  7) =     -8.31506  eV     1   --> G_2            
     e(  8 -  8) =     -8.31402  eV     1   --> G_2            
     e(  9 -  9) =     -8.31312  eV     1   --> G_2            
     e( 10 - 10) =     -8.31025  eV     1   --> G_2            
     e( 11 - 11) =     -6.09198  eV     1   --> G_2            
     e( 12 - 12) =     -6.09177  eV     1   --> G_2            
     e( 13 - 13) =      4.78831  eV     1   --> G_2            
     e( 14 - 14) =      4.80426  eV     1   --> G_2            
     e( 15 - 15) =      5.83468  eV     1   --> G_2            
     e( 16 - 16) =      5.87757  eV     1   --> G_2            
     e( 17 - 17) =      6.17907  eV     1   --> G_2            
     e( 18 - 18) =      6.18541  eV     1   --> G_2            
     e( 19 - 19) =      7.44013  eV     1   --> G_2            
     e( 20 - 20) =      7.46705  eV     1   --> G_2            
     e( 21 - 21) =      9.85618  eV     1   --> G_2            
     e( 22 - 22) =      9.88133  eV     1   --> G_2            
     e( 23 - 23) =     10.00668  eV     1   --> G_2            
     e( 24 - 24) =     10.01139  eV     1   --> G_2            
     e( 25 - 25) =     10.32690  eV     1   --> G_2            
     e( 26 - 26) =     10.33816  eV     1   --> G_2            

 **************************************************************************

 **************************************************************************

                    xk=(  -0.07500,   0.07500,   0.00000  )

     Band symmetry, C_1 (1)     double point group:

     e(  1 -  1) =     -8.78909  eV     1   --> G_2            
     e(  2 -  2) =     -8.78847  eV     1   --> G_2            
     e(  3 -  3) =     -8.78823  eV     1   --> G_2            
     e(  4 -  4) =     -8.78680  eV     1   --> G_2            
     e(  5 -  5) =     -8.35817  eV     1   --> G_2            
     e(  6 -  6) =     -8.35778  eV     1   --> G_2            
     e(  7 -  7) =     -8.31390  eV     1   --> G_2            
     e(  8 -  9) =     -8.31328  eV     2   -->   2 G_2            
     e( 10 - 10) =     -8.31126  eV     1   --> G_2            
     e( 11 - 12) =     -6.14286  eV     2   -->   2 G_2            
     e( 13 - 13) =      5.27887  eV     1   --> G_2            
     e( 14 - 14) =      5.29136  eV     1   --> G_2            
     e( 15 - 15) =      5.98440  eV     1   --> G_2            
     e( 16 - 16) =      6.01445  eV     1   --> G_2            
     e( 17 - 17) =      6.23451  eV     1   --> G_2            
     e( 18 - 18) =      6.23813  eV     1   --> G_2            
     e( 19 - 19) =      7.11347  eV     1   --> G_2            
     e( 20 - 20) =      7.12869  eV     1   --> G_2            
     e( 21 - 21) =      9.81979  eV     1   --> G_2            
     e( 22 - 22) =      9.83208  eV     1   --> G_2            
     e( 23 - 23) =      9.97155  eV     1   --> G_2            
     e( 24 - 24) =      9.97375  eV     1   --> G_2            
     e( 25 - 25) =     10.10895  eV     1   --> G_2            
     e( 26 - 26) =     10.11558  eV     1   --> G_2            

 **************************************************************************

 **************************************************************************

                    xk=(  -0.03750,   0.03750,   0.00000  )

     Band symmetry, C_1 (1)     double point group:

     e(  1 -  1) =     -8.78845  eV     1   --> G_2            
     e(  2 -  2) =     -8.78815  eV     1   --> G_2            
     e(  3 -  3) =     -8.78800  eV     1   --> G_2            
     e(  4 -  4) =     -8.78744  eV     1   --> G_2            
     e(  5 -  6) =     -8.35769  eV     2   -->   2 G_2            
     e(  7 -  8) =     -8.31318  eV     2   -->   2 G_2            
     e(  9 -  9) =     -8.31283  eV     1   --> G_2            
     e( 10 - 10) =     -8.31212  eV     1   --> G_2            
     e( 11 - 12) =     -6.17362  eV     2   -->   2 G_2            
     e( 13 - 13) =      5.74296  eV     1   --> G_2            
     e( 14 - 14) =      5.75016  eV     1   --> G_2            
     e( 15 - 15) =      6.08590  eV     1   --> G_2            
     e( 16 - 16) =      6.09928  eV     1   --> G_2            
     e( 17 - 17) =      6.28415  eV     1   --> G_2            
     e( 18 - 18) =      6.28433  eV     1   --> G_2            
     e( 19 - 19) =      6.73215  eV     1   --> G_2            
     e( 20 - 20) =      6.73761  eV     1   --> G_2            
     e( 21 - 21) =      9.78412  eV     1   --> G_2            
     e( 22 - 22) =      9.78622  eV     1   --> G_2            
     e( 23 - 23) =      9.95831  eV     1   --> G_2            
     e( 24 - 24) =      9.95860  eV     1   --> G_2            
     e( 25 - 25) =      9.98999  eV     1   --> G_2            
     e( 26 - 26) =      9.99118  eV     1   --> G_2            

 **************************************************************************

 **************************************************************************

                    xk=(   0.00000,   0.00000,   0.00000  )

     Band symmetry, C_1 (1)     double point group:

     e(  1 -  4) =     -8.78796  eV     4   -->   4 G_2            
     e(  5 -  6) =     -8.35756  eV     2   -->   2 G_2            
     e(  7 - 10) =     -8.31277  eV     4   -->   4 G_2            
     e( 11 - 12) =     -6.18391  eV     2   -->   2 G_2            
     e( 13 - 14) =      5.97606  eV     2   -->   2 G_2            
     e( 15 - 18) =      6.30417  eV     4   -->   4 G_2            
     e( 19 - 20) =      6.34636  eV     2   -->   2 G_2            
     e( 21 - 22) =      9.76524  eV     2   -->   2 G_2            
     e( 23 - 26) =      9.95566  eV     4   -->   4 G_2            

 **************************************************************************

     BANDS        :   3m54.61s CPU     48.09s WALL


   This run was terminated on:  21:33: 6  12May2024            

=------------------------------------------------------------------------------=
   JOB DONE.
=------------------------------------------------------------------------------=
