
     Program PWSCF v.7.2 starts on 12May2024 at 21:30:47 

     This program is part of the open-source Quantum ESPRESSO suite
     for quantum simulation of materials; please cite
         "P. Giannozzi et al., J. Phys.:Condens. Matter 21 395502 (2009);
         "P. Giannozzi et al., J. Phys.:Condens. Matter 29 465901 (2017);
         "P. Giannozzi et al., J. Chem. Phys. 152 154105 (2020);
          URL http://www.quantum-espresso.org", 
     in publications or presentations arising from this work. More details at
     http://www.quantum-espresso.org/quote

     Serial version
     0 MiB available memory on the printing compute node when the environment starts

     Waiting for input...
     Reading input from standard input

     Current dimensions of program PWSCF are:
     Max number of different atomic species (ntypx) = 10
     Max number of k-points (npk) =  40000
     Max angular momentum in pseudopotentials (lmaxx) =  4

     Atomic positions and unit cell read from directory:
     ../output/GaAs.save/

     file Ga.rel-pbe-dn-rrkjus_psl.0.2.UPF: wavefunction(s)  4S 3D 3D renormalized


     G-vector sticks info
     --------------------
     sticks:   dense  smooth     PW     G-vecs:    dense   smooth      PW
     Sum        1639     817    241                43599    15353    2445

     Using Slab Decomposition



     bravais-lattice index     =            2
     lattice parameter (alat)  =      10.8652  a.u.
     unit-cell volume          =     320.6662 (a.u.)^3
     number of atoms/cell      =            2
     number of atomic types    =            2
     number of electrons       =        18.00
     number of Kohn-Sham states=           26
     kinetic-energy cutoff     =      50.0000  Ry
     charge density cutoff     =     400.0000  Ry
     Exchange-correlation= PBE
                           (   1   4   3   4   0   0   0)
     Non magnetic calculation with spin-orbit


     celldm(1)=  10.865200  celldm(2)=   0.000000  celldm(3)=   0.000000
     celldm(4)=   0.000000  celldm(5)=   0.000000  celldm(6)=   0.000000

     crystal axes: (cart. coord. in units of alat)
               a(1) = (  -0.500000   0.000000   0.500000 )  
               a(2) = (   0.000000   0.500000   0.500000 )  
               a(3) = (  -0.500000   0.500000   0.000000 )  

     reciprocal axes: (cart. coord. in units 2 pi/alat)
               b(1) = ( -1.000000 -1.000000  1.000000 )  
               b(2) = (  1.000000  1.000000  1.000000 )  
               b(3) = ( -1.000000  1.000000 -1.000000 )  


     PseudoPot. # 1 for As read from file:
     ../pseudopotential/As.rel-pbe-n-rrkjus_psl.0.2.UPF
     MD5 check sum: fd1d9cb43fef956eb1cdd0c60ce90062
     Pseudo is Ultrasoft + core correction, Zval =  5.0
     Generated using "atomic" code by A. Dal Corso  v.5.0.2 svn rev. 9415
     Using radial grid of 1209 points,  6 beta functions with: 
                l(1) =   0
                l(2) =   0
                l(3) =   1
                l(4) =   1
                l(5) =   1
                l(6) =   1
     Q(r) pseudized with 0 coefficients 


     PseudoPot. # 2 for Ga read from file:
     ../pseudopotential/Ga.rel-pbe-dn-rrkjus_psl.0.2.UPF
     MD5 check sum: b82f27152fdba9c8aaf7d704465ad383
     Pseudo is Ultrasoft + core correction, Zval = 13.0
     Generated using "atomic" code by A. Dal Corso  v.5.0.2 svn rev. 9415
     Using radial grid of 1205 points, 10 beta functions with: 
                l(1) =   0
                l(2) =   0
                l(3) =   1
                l(4) =   1
                l(5) =   1
                l(6) =   1
                l(7) =   2
                l(8) =   2
                l(9) =   2
               l(10) =   2
     Q(r) pseudized with 0 coefficients 


     atomic species   valence    mass     pseudopotential
        As             5.00    74.92160     As( 1.00)
        Ga            13.00    69.72000     Ga( 1.00)

     No symmetry found



   Cartesian axes

     site n.     atom                  positions (alat units)
         1           Ga  tau(   1) = (   0.0000000   0.0000000   0.0000000  )
         2           As  tau(   2) = (   0.2500000   0.2500000   0.2500000  )

     number of k points=    81  Gaussian smearing, width (Ry)=  0.0020
                       cart. coord. in units 2pi/alat
        k(    1) = (  -0.5000000   0.5000000   0.5000000), wk =   0.0123457
        k(    2) = (  -0.4750000   0.4750000   0.4750000), wk =   0.0123457
        k(    3) = (  -0.4500000   0.4500000   0.4500000), wk =   0.0123457
        k(    4) = (  -0.4250000   0.4250000   0.4250000), wk =   0.0123457
        k(    5) = (  -0.4000000   0.4000000   0.4000000), wk =   0.0123457
        k(    6) = (  -0.3750000   0.3750000   0.3750000), wk =   0.0123457
        k(    7) = (  -0.3500000   0.3500000   0.3500000), wk =   0.0123457
        k(    8) = (  -0.3250000   0.3250000   0.3250000), wk =   0.0123457
        k(    9) = (  -0.3000000   0.3000000   0.3000000), wk =   0.0123457
        k(   10) = (  -0.2750000   0.2750000   0.2750000), wk =   0.0123457
        k(   11) = (  -0.2500000   0.2500000   0.2500000), wk =   0.0123457
        k(   12) = (  -0.2250000   0.2250000   0.2250000), wk =   0.0123457
        k(   13) = (  -0.2000000   0.2000000   0.2000000), wk =   0.0123457
        k(   14) = (  -0.1750000   0.1750000   0.1750000), wk =   0.0123457
        k(   15) = (  -0.1500000   0.1500000   0.1500000), wk =   0.0123457
        k(   16) = (  -0.1250000   0.1250000   0.1250000), wk =   0.0123457
        k(   17) = (  -0.1000000   0.1000000   0.1000000), wk =   0.0123457
        k(   18) = (  -0.0750000   0.0750000   0.0750000), wk =   0.0123457
        k(   19) = (  -0.0500000   0.0500000   0.0500000), wk =   0.0123457
        k(   20) = (  -0.0250000   0.0250000   0.0250000), wk =   0.0123457
        k(   21) = (   0.0000000   0.0000000   0.0000000), wk =   0.0123457
        k(   22) = (  -0.0500000   0.0000000   0.0000000), wk =   0.0123457
        k(   23) = (  -0.1000000   0.0000000   0.0000000), wk =   0.0123457
        k(   24) = (  -0.1500000   0.0000000   0.0000000), wk =   0.0123457
        k(   25) = (  -0.2000000   0.0000000   0.0000000), wk =   0.0123457
        k(   26) = (  -0.2500000   0.0000000   0.0000000), wk =   0.0123457
        k(   27) = (  -0.3000000   0.0000000   0.0000000), wk =   0.0123457
        k(   28) = (  -0.3500000   0.0000000   0.0000000), wk =   0.0123457
        k(   29) = (  -0.4000000   0.0000000   0.0000000), wk =   0.0123457
        k(   30) = (  -0.4500000   0.0000000   0.0000000), wk =   0.0123457
        k(   31) = (  -0.5000000   0.0000000   0.0000000), wk =   0.0123457
        k(   32) = (  -0.5500000   0.0000000   0.0000000), wk =   0.0123457
        k(   33) = (  -0.6000000   0.0000000   0.0000000), wk =   0.0123457
        k(   34) = (  -0.6500000   0.0000000   0.0000000), wk =   0.0123457
        k(   35) = (  -0.7000000   0.0000000   0.0000000), wk =   0.0123457
        k(   36) = (  -0.7500000   0.0000000   0.0000000), wk =   0.0123457
        k(   37) = (  -0.8000000   0.0000000   0.0000000), wk =   0.0123457
        k(   38) = (  -0.8500000   0.0000000   0.0000000), wk =   0.0123457
        k(   39) = (  -0.9000000   0.0000000   0.0000000), wk =   0.0123457
        k(   40) = (  -0.9500000   0.0000000   0.0000000), wk =   0.0123457
        k(   41) = (  -1.0000000   0.0000000   0.0000000), wk =   0.0123457
        k(   42) = (  -0.9875000   0.0375000   0.0000000), wk =   0.0123457
        k(   43) = (  -0.9750000   0.0750000   0.0000000), wk =   0.0123457
        k(   44) = (  -0.9625000   0.1125000   0.0000000), wk =   0.0123457
        k(   45) = (  -0.9500000   0.1500000   0.0000000), wk =   0.0123457
        k(   46) = (  -0.9375000   0.1875000   0.0000000), wk =   0.0123457
        k(   47) = (  -0.9250000   0.2250000   0.0000000), wk =   0.0123457
        k(   48) = (  -0.9125000   0.2625000   0.0000000), wk =   0.0123457
        k(   49) = (  -0.9000000   0.3000000   0.0000000), wk =   0.0123457
        k(   50) = (  -0.8875000   0.3375000   0.0000000), wk =   0.0123457
        k(   51) = (  -0.8750000   0.3750000   0.0000000), wk =   0.0123457
        k(   52) = (  -0.8625000   0.4125000   0.0000000), wk =   0.0123457
        k(   53) = (  -0.8500000   0.4500000   0.0000000), wk =   0.0123457
        k(   54) = (  -0.8375000   0.4875000   0.0000000), wk =   0.0123457
        k(   55) = (  -0.8250000   0.5250000   0.0000000), wk =   0.0123457
        k(   56) = (  -0.8125000   0.5625000   0.0000000), wk =   0.0123457
        k(   57) = (  -0.8000000   0.6000000   0.0000000), wk =   0.0123457
        k(   58) = (  -0.7875000   0.6375000   0.0000000), wk =   0.0123457
        k(   59) = (  -0.7750000   0.6750000   0.0000000), wk =   0.0123457
        k(   60) = (  -0.7625000   0.7125000   0.0000000), wk =   0.0123457
        k(   61) = (  -0.7500000   0.7500000   0.0000000), wk =   0.0123457
        k(   62) = (  -0.7125000   0.7125000   0.0000000), wk =   0.0123457
        k(   63) = (  -0.6750000   0.6750000   0.0000000), wk =   0.0123457
        k(   64) = (  -0.6375000   0.6375000   0.0000000), wk =   0.0123457
        k(   65) = (  -0.6000000   0.6000000   0.0000000), wk =   0.0123457
        k(   66) = (  -0.5625000   0.5625000   0.0000000), wk =   0.0123457
        k(   67) = (  -0.5250000   0.5250000   0.0000000), wk =   0.0123457
        k(   68) = (  -0.4875000   0.4875000   0.0000000), wk =   0.0123457
        k(   69) = (  -0.4500000   0.4500000   0.0000000), wk =   0.0123457
        k(   70) = (  -0.4125000   0.4125000   0.0000000), wk =   0.0123457
        k(   71) = (  -0.3750000   0.3750000   0.0000000), wk =   0.0123457
        k(   72) = (  -0.3375000   0.3375000   0.0000000), wk =   0.0123457
        k(   73) = (  -0.3000000   0.3000000   0.0000000), wk =   0.0123457
        k(   74) = (  -0.2625000   0.2625000   0.0000000), wk =   0.0123457
        k(   75) = (  -0.2250000   0.2250000   0.0000000), wk =   0.0123457
        k(   76) = (  -0.1875000   0.1875000   0.0000000), wk =   0.0123457
        k(   77) = (  -0.1500000   0.1500000   0.0000000), wk =   0.0123457
        k(   78) = (  -0.1125000   0.1125000   0.0000000), wk =   0.0123457
        k(   79) = (  -0.0750000   0.0750000   0.0000000), wk =   0.0123457
        k(   80) = (  -0.0375000   0.0375000   0.0000000), wk =   0.0123457
        k(   81) = (   0.0000000   0.0000000   0.0000000), wk =   0.0123457

     Dense  grid:    43599 G-vectors     FFT dimensions: (  50,  50,  50)

     Smooth grid:    15353 G-vectors     FFT dimensions: (  36,  36,  36)

     Estimated max dynamical RAM per process >     450.80 MB

     The potential is recalculated from file :
     ../output/GaAs.save/charge-density

     Starting wfcs are   26 randomized atomic wfcs

     Band Structure Calculation
     Davidson diagonalization with overlap

     ethr =  5.56E-11,  avg # of iterations = 24.5

     total cpu time spent up to now is       90.8 secs

     End of band structure calculation

          k =-0.5000 0.5000 0.5000 (  1916 PWs)   bands (ev):

    -8.8047  -8.8047  -8.7839  -8.7839  -8.3658  -8.3658  -8.3311  -8.3311
    -8.2963  -8.2963  -4.5700  -4.5700  -0.1960  -0.1960   5.0201   5.0201
     5.2221   5.2221   7.0485   7.0485  10.7472  10.7472  10.8413  10.8413
    13.9340  13.9340

          k =-0.4750 0.4750 0.4750 (  1910 PWs)   bands (ev):

    -8.8046  -8.8046  -8.7843  -8.7836  -8.3657  -8.3657  -8.3311  -8.3311
    -8.2969  -8.2960  -4.5864  -4.5864  -0.1656  -0.1656   5.0248   5.0248
     5.2266   5.2271   7.0534   7.0534  10.7493  10.7493  10.8437  10.8440
    13.9330  13.9330

          k =-0.4500 0.4500 0.4500 (  1925 PWs)   bands (ev):

    -8.8043  -8.8043  -8.7848  -8.7832  -8.3657  -8.3657  -8.3308  -8.3308
    -8.2976  -8.2959  -4.6342  -4.6342  -0.0760  -0.0760   5.0389   5.0389
     5.2405   5.2414   7.0682   7.0682  10.7553  10.7553  10.8509  10.8514
    13.9266  13.9266

          k =-0.4250 0.4250 0.4250 (  1919 PWs)   bands (ev):

    -8.8038  -8.8038  -8.7852  -8.7830  -8.3655  -8.3655  -8.3304  -8.3304
    -8.2985  -8.2960  -4.7094  -4.7094   0.0687   0.0687   5.0622   5.0622
     5.2638   5.2651   7.0926   7.0926  10.7641  10.7641  10.8617  10.8625
    13.9021  13.9021

          k =-0.4000 0.4000 0.4000 (  1910 PWs)   bands (ev):

    -8.8030  -8.8030  -8.7857  -8.7828  -8.3653  -8.3653  -8.3299  -8.3299
    -8.2996  -8.2963  -4.8062  -4.8062   0.2626   0.2626   5.0945   5.0945
     5.2962   5.2979   7.1263   7.1263  10.7736  10.7736  10.8741  10.8752
    13.8330  13.8330

          k =-0.3750 0.3750 0.3750 (  1916 PWs)   bands (ev):

    -8.8021  -8.8021  -8.7862  -8.7827  -8.3650  -8.3650  -8.3292  -8.3292
    -8.3008  -8.2968  -4.9186  -4.9186   0.4993   0.4993   5.1357   5.1357
     5.3375   5.3396   7.1690   7.1690  10.7813  10.7813  10.8854  10.8869
    13.6798  13.6798

          k =-0.3500 0.3500 0.3500 (  1913 PWs)   bands (ev):

    -8.8010  -8.8010  -8.7867  -8.7826  -8.3646  -8.3646  -8.3283  -8.3283
    -8.3021  -8.2975  -5.0410  -5.0410   0.7729   0.7729   5.1852   5.1852
     5.3873   5.3898   7.2198   7.2198  10.7836  10.7836  10.8921  10.8939
    13.4226  13.4226

          k =-0.3250 0.3250 0.3250 (  1913 PWs)   bands (ev):

    -8.7998  -8.7998  -8.7871  -8.7827  -8.3642  -8.3642  -8.3273  -8.3273
    -8.3035  -8.2984  -5.1683  -5.1683   1.0778   1.0778   5.2428   5.2428
     5.4452   5.4480   7.2778   7.2778  10.7766  10.7766  10.8900  10.8921
    13.0861  13.0861

          k =-0.3000 0.3000 0.3000 (  1910 PWs)   bands (ev):

    -8.7986  -8.7986  -8.7876  -8.7828  -8.3637  -8.3637  -8.3262  -8.3262
    -8.3049  -8.2995  -5.2966  -5.2966   1.4094   1.4094   5.3076   5.3076
     5.5107   5.5136   7.3415   7.3415  10.7562  10.7562  10.8746  10.8770
    12.7081  12.7081

          k =-0.2750 0.2750 0.2750 (  1910 PWs)   bands (ev):

    -8.7973  -8.7973  -8.7880  -8.7830  -8.3631  -8.3631  -8.3249  -8.3249
    -8.3062  -8.3006  -5.4225  -5.4225   1.7637   1.7637   5.3790   5.3790
     5.5828   5.5860   7.4086   7.4086  10.7187  10.7187  10.8419  10.8444
    12.3144  12.3144

          k =-0.2500 0.2500 0.2500 (  1916 PWs)   bands (ev):

    -8.7960  -8.7960  -8.7883  -8.7832  -8.3625  -8.3625  -8.3235  -8.3235
    -8.3076  -8.3019  -5.5434  -5.5434   2.1373   2.1373   5.4559   5.4559
     5.6606   5.6639   7.4759   7.4759  10.6618  10.6618  10.7891  10.7917
    11.9200  11.9200

          k =-0.2250 0.2250 0.2250 (  1922 PWs)   bands (ev):

    -8.7947  -8.7947  -8.7886  -8.7836  -8.3618  -8.3618  -8.3221  -8.3221
    -8.3088  -8.3032  -5.6573  -5.6573   2.5270   2.5270   5.5372   5.5372
     5.7429   5.7463   7.5385   7.5385  10.5852  10.5852  10.7155  10.7180
    11.5352  11.5352

          k =-0.2000 0.2000 0.2000 (  1922 PWs)   bands (ev):

    -8.7934  -8.7934  -8.7888  -8.7840  -8.3611  -8.3611  -8.3206  -8.3206
    -8.3100  -8.3046  -5.7625  -5.7625   2.9299   2.9299   5.6211   5.6211
     5.8282   5.8315   7.5894   7.5894  10.4912  10.4912  10.6233  10.6255
    11.1690  11.1690

          k =-0.1750 0.1750 0.1750 (  1922 PWs)   bands (ev):

    -8.7923  -8.7923  -8.7890  -8.7845  -8.3605  -8.3605  -8.3191  -8.3191
    -8.3110  -8.3059  -5.8578  -5.8578   3.3433   3.3433   5.7059   5.7059
     5.9144   5.9176   7.6182   7.6182  10.3838  10.3838  10.5169  10.5188
    10.8316  10.8316

          k =-0.1500 0.1500 0.1500 (  1922 PWs)   bands (ev):

    -8.7912  -8.7912  -8.7891  -8.7850  -8.3598  -8.3598  -8.3177  -8.3177
    -8.3118  -8.3072  -5.9422  -5.9422   3.7642   3.7642   5.7892   5.7892
     5.9992   6.0022   7.6113   7.6113  10.2678  10.2678  10.4026  10.4042
    10.5364  10.5364

          k =-0.1250 0.1250 0.1250 (  1913 PWs)   bands (ev):

    -8.7902  -8.7902  -8.7891  -8.7855  -8.3592  -8.3592  -8.3163  -8.3163
    -8.3125  -8.3084  -6.0148  -6.0148   4.1896   4.1896   5.8685   5.8685
     6.0799   6.0826   7.5523   7.5523  10.1451  10.1451  10.2880  10.2892
    10.3015  10.3015

          k =-0.1000 0.1000 0.1000 (  1901 PWs)   bands (ev):

    -8.7894  -8.7894  -8.7890  -8.7860  -8.3586  -8.3586  -8.3151  -8.3151
    -8.3129  -8.3095  -6.0751  -6.0751   4.6157   4.6157   5.9407   5.9407
     6.1531   6.1554   7.4272   7.4272  10.0166  10.0166  10.1435  10.1435
    10.1807  10.1815

          k =-0.0750 0.0750 0.0750 (  1904 PWs)   bands (ev):

    -8.7888  -8.7888  -8.7888  -8.7865  -8.3582  -8.3582  -8.3141  -8.3141
    -8.3132  -8.3106  -6.1224  -6.1224   5.0379   5.0379   6.0033   6.0033
     6.2154   6.2173   7.2304   7.2304   9.9039   9.9039  10.0480  10.0480
    10.0879  10.0884

          k =-0.0500 0.0500 0.0500 (  1917 PWs)   bands (ev):

    -8.7886  -8.7883  -8.7883  -8.7871  -8.3578  -8.3578  -8.3134  -8.3134
    -8.3133  -8.3115  -6.1565  -6.1565   5.4479   5.4479   6.0555   6.0555
     6.2633   6.2646   6.9682   6.9682   9.8253   9.8253   9.9918   9.9918
    10.0163  10.0166

          k =-0.0250 0.0250 0.0250 (  1917 PWs)   bands (ev):

    -8.7883  -8.7881  -8.7881  -8.7875  -8.3576  -8.3576  -8.3131  -8.3129
    -8.3129  -8.3122  -6.1770  -6.1770   5.8168   5.8168   6.1150   6.1150
     6.2936   6.2942   6.6566   6.6566   9.7801   9.7801   9.9638   9.9638
     9.9711   9.9712

          k = 0.0000 0.0000 0.0000 (  1917 PWs)   bands (ev):

    -8.7880  -8.7880  -8.7880  -8.7880  -8.3576  -8.3576  -8.3128  -8.3128
    -8.3128  -8.3128  -6.1839  -6.1839   5.9761   5.9761   6.3042   6.3042
     6.3042   6.3042   6.3464   6.3464   9.7652   9.7652   9.9557   9.9557
     9.9557   9.9557

          k =-0.0500 0.0000 0.0000 (  1917 PWs)   bands (ev):

    -8.7884  -8.7884  -8.7876  -8.7876  -8.3577  -8.3577  -8.3132  -8.3132
    -8.3124  -8.3124  -6.1748  -6.1748   5.7808   5.7808   6.0905   6.0905
     6.2711   6.2711   6.7245   6.7245   9.7765   9.7765   9.9541   9.9541
     9.9966   9.9966

          k =-0.1000 0.0000 0.0000 (  1913 PWs)   bands (ev):

    -8.7890  -8.7890  -8.7872  -8.7872  -8.3579  -8.3579  -8.3136  -8.3136
    -8.3122  -8.3122  -6.1474  -6.1474   5.3830   5.3830   5.9820   5.9820
     6.1770   6.1770   7.1415   7.1415   9.7315   9.7315  10.0301  10.0301
    10.1155  10.1155

          k =-0.1500 0.0000 0.0000 (  1917 PWs)   bands (ev):

    -8.7901  -8.7901  -8.7866  -8.7866  -8.3585  -8.3585  -8.3141  -8.3141
    -8.3120  -8.3120  -6.1019  -6.1019   4.9630   4.9630   5.8488   5.8488
     6.0346   6.0346   7.5519   7.5519   9.6020   9.6020  10.2162  10.2162
    10.3023  10.3023

          k =-0.2000 0.0000 0.0000 (  1913 PWs)   bands (ev):

    -8.7914  -8.7914  -8.7858  -8.7858  -8.3592  -8.3592  -8.3144  -8.3144
    -8.3119  -8.3119  -6.0388  -6.0388   4.5420   4.5420   5.6864   5.6864
     5.8588   5.8588   7.9421   7.9421   9.4369   9.4369  10.4698  10.4698
    10.5445  10.5445

          k =-0.2500 0.0000 0.0000 (  1912 PWs)   bands (ev):

    -8.7931  -8.7931  -8.7849  -8.7849  -8.3602  -8.3602  -8.3145  -8.3145
    -8.3118  -8.3118  -5.9584  -5.9584   4.1240   4.1240   5.5044   5.5044
     5.6631   5.6631   8.2902   8.2902   9.2699   9.2699  10.7695  10.7695
    10.8300  10.8300

          k =-0.3000 0.0000 0.0000 (  1920 PWs)   bands (ev):

    -8.7950  -8.7950  -8.7838  -8.7838  -8.3615  -8.3615  -8.3144  -8.3144
    -8.3118  -8.3118  -5.8613  -5.8613   3.7108   3.7108   5.3117   5.3117
     5.4579   5.4579   8.5424   8.5424   9.1529   9.1529  11.1026  11.1026
    11.1490  11.1490

          k =-0.3500 0.0000 0.0000 (  1924 PWs)   bands (ev):

    -8.7972  -8.7972  -8.7826  -8.7826  -8.3629  -8.3629  -8.3140  -8.3140
    -8.3117  -8.3117  -5.7483  -5.7483   3.3033   3.3033   5.1156   5.1156
     5.2507   5.2507   8.5928   8.5928   9.1798   9.1798  11.4601  11.4601
    11.4935  11.4935

          k =-0.4000 0.0000 0.0000 (  1924 PWs)   bands (ev):

    -8.7995  -8.7995  -8.7812  -8.7812  -8.3645  -8.3645  -8.3132  -8.3132
    -8.3116  -8.3116  -5.6203  -5.6203   2.9024   2.9024   4.9217   4.9217
     5.0473   5.0473   8.4839   8.4839   9.2901   9.2901  11.8355  11.8355
    11.8578  11.8578

          k =-0.4500 0.0000 0.0000 (  1936 PWs)   bands (ev):

    -8.8020  -8.8020  -8.7799  -8.7799  -8.3662  -8.3662  -8.3125  -8.3125
    -8.3112  -8.3112  -5.4782  -5.4782   2.5091   2.5091   4.7342   4.7342
     4.8516   4.8516   8.3354   8.3354   9.3501   9.3501  12.2225  12.2225
    12.2384  12.2384

          k =-0.5000 0.0000 0.0000 (  1924 PWs)   bands (ev):

    -8.8045  -8.8045  -8.7785  -8.7785  -8.3679  -8.3679  -8.3120  -8.3120
    -8.3102  -8.3102  -5.3236  -5.3236   2.1247   2.1247   4.5561   4.5561
     4.6666   4.6666   8.1872   8.1872   9.3223   9.3223  12.6152  12.6152
    12.6338  12.6338

          k =-0.5500 0.0000 0.0000 (  1924 PWs)   bands (ev):

    -8.8069  -8.8069  -8.7771  -8.7771  -8.3696  -8.3696  -8.3118  -8.3118
    -8.3087  -8.3087  -5.1580  -5.1580   1.7507   1.7507   4.3899   4.3899
     4.4946   4.4946   8.0512   8.0512   9.2162   9.2162  13.0119  13.0119
    13.0396  13.0396

          k =-0.6000 0.0000 0.0000 (  1932 PWs)   bands (ev):

    -8.8094  -8.8094  -8.7758  -8.7758  -8.3711  -8.3711  -8.3117  -8.3117
    -8.3070  -8.3070  -4.9836  -4.9836   1.3894   1.3894   4.2374   4.2374
     4.3373   4.3373   7.9323   7.9323   9.0574   9.0574  13.4127  13.4127
    13.4508  13.4508

          k =-0.6500 0.0000 0.0000 (  1936 PWs)   bands (ev):

    -8.8116  -8.8116  -8.7746  -8.7746  -8.3725  -8.3725  -8.3116  -8.3116
    -8.3053  -8.3053  -4.8032  -4.8032   1.0435   1.0435   4.1002   4.1002
     4.1961   4.1961   7.8332   7.8332   8.8712   8.8712  13.8157  13.8157
    13.8638  13.8638

          k =-0.7000 0.0000 0.0000 (  1932 PWs)   bands (ev):

    -8.8137  -8.8137  -8.7735  -8.7735  -8.3737  -8.3737  -8.3115  -8.3115
    -8.3037  -8.3037  -4.6208  -4.6208   0.7171   0.7171   3.9793   3.9793
     4.0719   4.0719   7.7554   7.7554   8.6764   8.6764  14.2181  14.2181
    14.2745  14.2745

          k =-0.7500 0.0000 0.0000 (  1916 PWs)   bands (ev):

    -8.8155  -8.8155  -8.7725  -8.7725  -8.3747  -8.3747  -8.3114  -8.3114
    -8.3021  -8.3021  -4.4413  -4.4413   0.4153   0.4153   3.8756   3.8756
     3.9656   3.9656   7.7000   7.7000   8.4862   8.4862  14.6147  14.6147
    14.6772  14.6772

          k =-0.8000 0.0000 0.0000 (  1936 PWs)   bands (ev):

    -8.8172  -8.8172  -8.7717  -8.7717  -8.3756  -8.3756  -8.3113  -8.3113
    -8.3007  -8.3007  -4.2717  -4.2717   0.1452   0.1452   3.7899   3.7899
     3.8778   3.8778   7.6678   7.6678   8.3088   8.3088  14.9968  14.9968
    15.0630  15.0630

          k =-0.8500 0.0000 0.0000 (  1920 PWs)   bands (ev):

    -8.8184  -8.8184  -8.7710  -8.7710  -8.3763  -8.3763  -8.3112  -8.3112
    -8.2996  -8.2996  -4.1210  -4.1210  -0.0839  -0.0839   3.7227   3.7227
     3.8090   3.8090   7.6591   7.6591   8.1500   8.1500  15.3503  15.3503
    15.4171  15.4171

          k =-0.9000 0.0000 0.0000 (  1916 PWs)   bands (ev):

    -8.8193  -8.8193  -8.7705  -8.7705  -8.3767  -8.3767  -8.3111  -8.3111
    -8.2987  -8.2987  -4.0001  -4.0001  -0.2608  -0.2608   3.6745   3.6745
     3.7597   3.7597   7.6732   7.6732   8.0140   8.0140  15.6512  15.6512
    15.7147  15.7147

          k =-0.9500 0.0000 0.0000 (  1916 PWs)   bands (ev):

    -8.8199  -8.8199  -8.7702  -8.7702  -8.3770  -8.3770  -8.3111  -8.3111
    -8.2982  -8.2982  -3.9210  -3.9210  -0.3736  -0.3736   3.6454   3.6454
     3.7300   3.7300   7.7066   7.7066   7.9066   7.9066  15.8627  15.8627
    15.9198  15.9198

          k =-1.0000 0.0000 0.0000 (  1924 PWs)   bands (ev):

    -8.8201  -8.8201  -8.7701  -8.7701  -8.3771  -8.3771  -8.3111  -8.3111
    -8.2981  -8.2981  -3.8934  -3.8934  -0.4125  -0.4125   3.6357   3.6357
     3.7200   3.7200   7.7341   7.7341   7.8544   7.8544  15.9407  15.9407
    15.9939  15.9939

          k =-0.9875 0.0375 0.0000 (  1920 PWs)   bands (ev):

    -8.8223  -8.8178  -8.7706  -8.7696  -8.3808  -8.3734  -8.3116  -8.3105
    -8.2991  -8.2972  -3.8946  -3.8944  -0.4106  -0.4054   3.6163   3.6326
     3.7046   3.7122   7.7550   7.7614   7.8787   7.8921  15.8486  15.9096
    15.9279  15.9541

          k =-0.9750 0.0750 0.0000 (  1920 PWs)   bands (ev):

    -8.8245  -8.8155  -8.7710  -8.7691  -8.3844  -8.3698  -8.3121  -8.3098
    -8.3005  -8.2965  -3.8978  -3.8976  -0.4001  -0.3897   3.5753   3.6082
     3.6677   3.6826   7.8257   7.8361   7.9636   7.9876  15.6422  15.6985
    15.7909  15.8354

          k =-0.9625 0.1125 0.0000 (  1918 PWs)   bands (ev):

    -8.8264  -8.8131  -8.7713  -8.7686  -8.3880  -8.3662  -8.3126  -8.3092
    -8.3020  -8.2961  -3.9029  -3.9026  -0.3816  -0.3661   3.5146   3.5657
     3.6124   3.6371   7.9457   7.9582   8.1023   8.1341  15.3104  15.3459
    15.6099  15.6635

          k =-0.9500 0.1500 0.0000 (  1915 PWs)   bands (ev):

    -8.8283  -8.8109  -8.7716  -8.7681  -8.3915  -8.3626  -8.3130  -8.3084
    -8.3038  -8.2959  -3.9097  -3.9093  -0.3566  -0.3360   3.4373   3.5070
     3.5458   3.5839   8.1120   8.1262   8.2867   8.3245  14.8847  14.9037
    15.4009  15.4559

          k =-0.9375 0.1875 0.0000 (  1913 PWs)   bands (ev):

    -8.8299  -8.8087  -8.7718  -8.7676  -8.3949  -8.3591  -8.3134  -8.3078
    -8.3056  -8.2959  -3.9176  -3.9172  -0.3268  -0.3011   3.3472   3.4274
     3.4841   3.5303   8.3197   8.3364   8.5091   8.5519  14.4042  14.4114
    15.1694  15.2212

          k =-0.9250 0.2250 0.0000 (  1911 PWs)   bands (ev):

    -8.8313  -8.8067  -8.7719  -8.7672  -8.3980  -8.3557  -8.3138  -8.3085
    -8.3062  -8.2960  -3.9263  -3.9259  -0.2942  -0.2637   3.2487   3.3317
     3.4345   3.4823   8.5638   8.5840   8.7631   8.8101  13.8935  13.8967
    14.9196  14.9659

          k =-0.9125 0.2625 0.0000 (  1909 PWs)   bands (ev):

    -8.8325  -8.8050  -8.7720  -8.7668  -8.4008  -8.3524  -8.3144  -8.3104
    -8.3055  -8.2962  -3.9353  -3.9350  -0.2611  -0.2259   3.1462   3.2292
     3.3979   3.4452   8.8385   8.8638   9.0427   9.0929  13.3676  13.3784
    14.6561  14.6957

          k =-0.9000 0.3000 0.0000 (  1911 PWs)   bands (ev):

    -8.8336  -8.8034  -8.7720  -8.7665  -8.4033  -8.3491  -8.3154  -8.3123
    -8.3046  -8.2966  -3.9441  -3.9438  -0.2299  -0.1904   3.0435   3.1255
     3.3776   3.4234   9.1373   9.1709   9.3426   9.3941  12.8446  12.8636
    14.3837  14.4162

          k =-0.8875 0.3375 0.0000 (  1909 PWs)   bands (ev):

    -8.8343  -8.8022  -8.7720  -8.7662  -8.4054  -8.3460  -8.3173  -8.3134
    -8.3037  -8.2971  -3.9523  -3.9521  -0.2027  -0.1593   2.9440   3.0246
     3.3765   3.4203   9.4505   9.4993   9.6583   9.7063  12.3360  12.3652
    14.1075  14.1335

          k =-0.8750 0.3750 0.0000 (  1907 PWs)   bands (ev):

    -8.8349  -8.8012  -8.7720  -8.7659  -8.4071  -8.3430  -8.3198  -8.3139
    -8.3027  -8.2976  -3.9595  -3.9593  -0.1811  -0.1344   2.8504   2.9292
     3.3966   3.4381   9.7573   9.8375   9.9869  10.0210  11.8589  11.9023
    13.8329  13.8544

          k =-0.8625 0.4125 0.0000 (  1908 PWs)   bands (ev):

    -8.8353  -8.8005  -8.7721  -8.7657  -8.4082  -8.3403  -8.3224  -8.3142
    -8.3018  -8.2982  -3.9653  -3.9652  -0.1664  -0.1171   2.7648   2.8417
     3.4387   3.4775  10.0059  10.1359  10.3222  10.3478  11.4562  11.5190
    13.5658  13.5882

          k =-0.8500 0.4500 0.0000 (  1907 PWs)   bands (ev):

    -8.8355  -8.8001  -8.7722  -8.7654  -8.4089  -8.3381  -8.3247  -8.3145
    -8.3010  -8.2987  -3.9695  -3.9694  -0.1591  -0.1078   2.6889   2.7638
     3.5018   3.5379  10.0832  10.2221  10.6784  10.7133  11.2468  11.3208
    13.3164  13.3471

          k =-0.8375 0.4875 0.0000 (  1911 PWs)   bands (ev):

    -8.8355  -8.8000  -8.7725  -8.7652  -8.4091  -8.3370  -8.3260  -8.3147
    -8.3004  -8.2990  -3.9718  -3.9717  -0.1589  -0.1064   2.6242   2.6970
     3.5834   3.6166   9.9080  10.0040  11.0561  11.0904  11.3156  11.3856
    13.1053  13.1500

          k =-0.8250 0.5250 0.0000 (  1911 PWs)   bands (ev):

    -8.8354  -8.8000  -8.7728  -8.7650  -8.4089  -8.3375  -8.3259  -8.3148
    -8.3005  -8.2987  -3.9720  -3.9719  -0.1652  -0.1121   2.5716   2.6424
     3.6793   3.7092   9.5919   9.6552  11.3276  11.4278  11.5861  11.6126
    12.9715  13.0297

          k =-0.8125 0.5625 0.0000 (  1909 PWs)   bands (ev):

    -8.8351  -8.8003  -8.7731  -8.7648  -8.4083  -8.3393  -8.3246  -8.3150
    -8.3010  -8.2981  -3.9701  -3.9700  -0.1766  -0.1237   2.5320   2.6008
     3.7832   3.8096   9.2459   9.2905  11.4197  11.5557  11.9688  12.0105
    12.9706  13.0278

          k =-0.8000 0.6000 0.0000 (  1903 PWs)   bands (ev):

    -8.8348  -8.8008  -8.7734  -8.7646  -8.4075  -8.3415  -8.3227  -8.3150
    -8.3015  -8.2976  -3.9660  -3.9658  -0.1920  -0.1397   2.5061   2.5728
     3.8869   3.9092   8.9167   8.9496  11.3823  11.5072  12.4005  12.4453
    13.1163  13.1541

          k =-0.7875 0.6375 0.0000 (  1903 PWs)   bands (ev):

    -8.8344  -8.8014  -8.7736  -8.7645  -8.4065  -8.3438  -8.3208  -8.3151
    -8.3021  -8.2970  -3.9597  -3.9595  -0.2098  -0.1586   2.4942   2.5588
     3.9799   3.9976   8.6281   8.6522  11.2543  11.3599  12.8433  12.8895
    13.3441  13.3674

          k =-0.7750 0.6750 0.0000 (  1907 PWs)   bands (ev):

    -8.8341  -8.8020  -8.7738  -8.7645  -8.4055  -8.3458  -8.3189  -8.3151
    -8.3026  -8.2966  -3.9514  -3.9511  -0.2288  -0.1790   2.4966   2.5592
     4.0501   4.0625   8.3973   8.4140  11.0782  11.1675  13.2821  13.3301
    13.5760  13.6160

          k =-0.7625 0.7125 0.0000 (  1903 PWs)   bands (ev):

    -8.8338  -8.8026  -8.7738  -8.7645  -8.4045  -8.3475  -8.3172  -8.3151
    -8.3031  -8.2963  -3.9412  -3.9408  -0.2478  -0.1996   2.5133   2.5741
     4.0850   4.0916   8.2388   8.2491  10.8811  10.9584  13.6730  13.7361
    13.7758  13.8565

          k =-0.7500 0.7500 0.0000 (  1906 PWs)   bands (ev):

    -8.8336  -8.8031  -8.7737  -8.7646  -8.4039  -8.3487  -8.3158  -8.3151
    -8.3035  -8.2962  -3.9295  -3.9290  -0.2657  -0.2191   2.5443   2.6035
     4.0738   4.0761   8.1622   8.1689  10.6773  10.7457  13.8815  13.8903
    14.0461  14.0468

          k =-0.7125 0.7125 0.0000 (  1900 PWs)   bands (ev):

    -8.8336  -8.8019  -8.7742  -8.7643  -8.4050  -8.3460  -8.3194  -8.3156
    -8.3024  -8.2966  -3.9771  -3.9770  -0.2063  -0.1558   2.4591   2.5223
     4.1944   4.1962   8.2690   8.2785  11.2599  11.3588  13.6051  13.6434
    13.6887  13.6922

          k =-0.6750 0.6750 0.0000 (  1896 PWs)   bands (ev):

    -8.8330  -8.8011  -8.7748  -8.7645  -8.4051  -8.3437  -8.3230  -8.3161
    -8.3014  -8.2971  -4.0483  -4.0478  -0.1269  -0.0743   2.4334   2.4994
     4.3275   4.3288   8.3813   8.3940  11.7033  11.8458  13.2657  13.2800
    13.4646  13.5896

          k =-0.6375 0.6375 0.0000 (  1897 PWs)   bands (ev):

    -8.8318  -8.8004  -8.7754  -8.7652  -8.4043  -8.3417  -8.3266  -8.3167
    -8.3007  -8.2976  -4.1447  -4.1434  -0.0210   0.0319   2.4660   2.5333
     4.4712   4.4721   8.4935   8.5102  11.8937  12.0604  12.9093  12.9191
    13.1450  13.2739

          k =-0.6000 0.6000 0.0000 (  1907 PWs)   bands (ev):

    -8.8300  -8.7999  -8.7760  -8.7663  -8.4026  -8.3401  -8.3299  -8.3172
    -8.3003  -8.2982  -4.2651  -4.2631   0.1168   0.1684   2.5522   2.6198
     4.6232   4.6239   8.5987   8.6204  11.8767  12.0354  12.5666  12.5746
    12.7616  12.8791

          k =-0.5625 0.5625 0.0000 (  1915 PWs)   bands (ev):

    -8.8277  -8.7995  -8.7767  -8.7679  -8.4001  -8.3393  -8.3324  -8.3176
    -8.3004  -8.2988  -4.4065  -4.4037   0.2900   0.3394   2.6862   2.7533
     4.7812   4.7816   8.6882   8.7160  11.7801  11.9254  12.2416  12.2488
    12.3859  12.5010

          k =-0.5250 0.5250 0.0000 (  1919 PWs)   bands (ev):

    -8.8250  -8.7991  -8.7774  -8.7698  -8.3970  -8.3401  -8.3332  -8.3180
    -8.3007  -8.2994  -4.5640  -4.5607   0.5001   0.5467   2.8618   2.9278
     4.9424   4.9426   8.7523   8.7873  11.6727  11.8100  11.9366  11.9433
    12.0350  12.1546

          k =-0.4875 0.4875 0.0000 (  1919 PWs)   bands (ev):

    -8.8217  -8.7986  -8.7781  -8.7719  -8.3935  -8.3424  -8.3324  -8.3184
    -8.3015  -8.3000  -4.7322  -4.7286   0.7470   0.7904   3.0728   3.1377
     5.1036   5.1038   8.7824   8.8254  11.5564  11.6354  11.6600  11.6661
    11.7858  11.8712

          k =-0.4500 0.4500 0.0000 (  1913 PWs)   bands (ev):

    -8.8182  -8.7981  -8.7788  -8.7741  -8.3895  -8.3450  -8.3310  -8.3186
    -8.3025  -8.3007  -4.9058  -4.9020   1.0292   1.0695   3.3140   3.3776
     5.2618   5.2620   8.7739   8.8246  11.3510  11.3612  11.3976  11.3994
    11.7316  11.7333

          k =-0.4125 0.4125 0.0000 (  1917 PWs)   bands (ev):

    -8.8144  -8.7975  -8.7795  -8.7764  -8.3853  -8.3476  -8.3293  -8.3187
    -8.3038  -8.3015  -5.0796  -5.0759   1.3450   1.3821   3.5800   3.6424
     5.4137   5.4140   8.7272   8.7845  11.0712  11.1116  11.1537  11.1550
    11.7118  11.7352

          k =-0.3750 0.3750 0.0000 (  1919 PWs)   bands (ev):

    -8.8104  -8.7968  -8.7803  -8.7787  -8.3810  -8.3500  -8.3276  -8.3187
    -8.3053  -8.3024  -5.2494  -5.2460   1.6921   1.7263   3.8659   3.9272
     5.5562   5.5568   8.6477   8.7097  10.8143  10.8646  10.9333  10.9336
    11.7282  11.7538

          k =-0.3375 0.3375 0.0000 (  1909 PWs)   bands (ev):

    -8.8065  -8.7959  -8.7811  -8.7808  -8.3767  -8.3521  -8.3258  -8.3185
    -8.3068  -8.3034  -5.4116  -5.4086   2.0684   2.0998   4.1663   4.2266
     5.6867   5.6877   8.5424   8.6068  10.5848  10.6380  10.7345  10.7359
    11.7303  11.7538

          k =-0.3000 0.3000 0.0000 (  1915 PWs)   bands (ev):

    -8.8027  -8.7951  -8.7827  -8.7819  -8.3727  -8.3539  -8.3239  -8.3181
    -8.3083  -8.3045  -5.5631  -5.5607   2.4714   2.5002   4.4750   4.5343
     5.8033   5.8050   8.4172   8.4816  10.3848  10.4379  10.5576  10.5600
    11.6730  11.6933

          k =-0.2625 0.2625 0.0000 (  1923 PWs)   bands (ev):

    -8.7991  -8.7941  -8.7844  -8.7828  -8.3689  -8.3554  -8.3220  -8.3175
    -8.3097  -8.3056  -5.7017  -5.6998   2.8989   2.9251   4.7850   4.8432
     5.9048   5.9073   8.2749   8.3370  10.2161  10.2672  10.4025  10.4058
    11.5217  11.5388

          k =-0.2250 0.2250 0.0000 (  1925 PWs)   bands (ev):

    -8.7959  -8.7931  -8.7858  -8.7836  -8.3656  -8.3566  -8.3201  -8.3168
    -8.3109  -8.3068  -5.8253  -5.8239   3.3479   3.3717   5.0876   5.1443
     5.9911   5.9947   8.1144   8.1714  10.0798  10.1274  10.2690  10.2733
    11.2717  11.2865

          k =-0.1875 0.1875 0.0000 (  1921 PWs)   bands (ev):

    -8.7932  -8.7920  -8.7868  -8.7845  -8.3628  -8.3573  -8.3182  -8.3159
    -8.3119  -8.3080  -5.9323  -5.9314   3.8155   3.8368   5.3722   5.4265
     6.0633   6.0683   7.9294   7.9786   9.9765  10.0189  10.1575  10.1628
    10.9550  10.9686

          k =-0.1500 0.1500 0.0000 (  1915 PWs)   bands (ev):

    -8.7910  -8.7909  -8.7876  -8.7853  -8.3607  -8.3577  -8.3165  -8.3150
    -8.3127  -8.3091  -6.0215  -6.0211   4.2975   4.3163   5.6262   5.6764
     6.1242   6.1304   7.7091   7.7479   9.9041   9.9393  10.0693  10.0749
    10.6228  10.6358

          k =-0.1125 0.1125 0.0000 (  1911 PWs)   bands (ev):

    -8.7899  -8.7895  -8.7881  -8.7861  -8.3591  -8.3579  -8.3151  -8.3140
    -8.3131  -8.3103  -6.0920  -6.0918   4.7883   4.8043   5.8347   5.8776
     6.1791   6.1854   7.4401   7.4671   9.8562   9.8813  10.0067  10.0114
    10.3269  10.3382

          k =-0.0750 0.0750 0.0000 (  1911 PWs)   bands (ev):

    -8.7891  -8.7885  -8.7882  -8.7868  -8.3582  -8.3578  -8.3139  -8.3133
    -8.3133  -8.3113  -6.1429  -6.1428   5.2789   5.2914   5.9844   6.0145
     6.2345   6.2381   7.1135   7.1287   9.8198   9.8321   9.9715   9.9737
    10.1090  10.1156

          k =-0.0375 0.0375 0.0000 (  1917 PWs)   bands (ev):

    -8.7884  -8.7882  -8.7880  -8.7874  -8.3577  -8.3576  -8.3132  -8.3131
    -8.3128  -8.3121  -6.1736  -6.1736   5.7430   5.7502   6.0859   6.0993
     6.2841   6.2843   6.7321   6.7376   9.7841   9.7862   9.9583   9.9586
     9.9900   9.9912

          k = 0.0000 0.0000 0.0000 (  1917 PWs)   bands (ev):

    -8.7880  -8.7880  -8.7880  -8.7880  -8.3576  -8.3576  -8.3128  -8.3128
    -8.3128  -8.3128  -6.1839  -6.1839   5.9761   5.9761   6.3042   6.3042
     6.3042   6.3042   6.3464   6.3464   9.7652   9.7652   9.9557   9.9557
     9.9557   9.9557

     Writing all to output data dir ../output/GaAs.save/

     init_run     :      1.52s CPU      0.85s WALL (       1 calls)
     electrons    :    497.83s CPU     89.45s WALL (       1 calls)

     Called by init_run:
     wfcinit      :      0.00s CPU      0.00s WALL (       1 calls)
     potinit      :      0.04s CPU      0.04s WALL (       1 calls)
     hinit0       :      0.61s CPU      0.61s WALL (       1 calls)

     Called by electrons:
     c_bands      :    497.83s CPU     89.45s WALL (       1 calls)
     v_of_rho     :      0.03s CPU      0.03s WALL (       1 calls)
     newd         :      0.86s CPU      0.18s WALL (       1 calls)

     Called by c_bands:
     init_us_2    :      0.26s CPU      0.04s WALL (      81 calls)
     init_us_2:cp :      0.26s CPU      0.04s WALL (      81 calls)
     cegterg      :    467.51s CPU     83.89s WALL (     129 calls)

     Called by *egterg:
     cdiaghg      :     17.15s CPU      2.27s WALL (    2066 calls)
     h_psi        :    378.42s CPU     71.82s WALL (    2195 calls)
     s_psi        :     10.82s CPU      1.81s WALL (    2195 calls)
     g_psi        :      3.55s CPU      0.43s WALL (    1985 calls)

     Called by h_psi:
     h_psi:calbec :     13.51s CPU      3.05s WALL (    2195 calls)
     vloc_psi     :    354.57s CPU     66.95s WALL (    2195 calls)
     add_vuspsi   :      8.88s CPU      1.61s WALL (    2195 calls)

     General routines
     calbec       :     13.49s CPU      3.05s WALL (    2195 calls)
     fft          :      0.02s CPU      0.02s WALL (      19 calls)
     ffts         :      0.00s CPU      0.00s WALL (       4 calls)
     fftw         :    279.11s CPU     53.00s WALL (  145132 calls)
     interpolate  :      0.01s CPU      0.01s WALL (       4 calls)
     davcio       :      0.39s CPU      0.05s WALL (     162 calls)


     PWSCF        :   8m21.72s CPU   1m30.95s WALL


   This run was terminated on:  21:32:18  12May2024            

=------------------------------------------------------------------------------=
   JOB DONE.
=------------------------------------------------------------------------------=
