
     Program PROJWFC v.7.2 starts on 12May2024 at 21:39:26 

     This program is part of the open-source Quantum ESPRESSO suite
     for quantum simulation of materials; please cite
         "P. Giannozzi et al., J. Phys.:Condens. Matter 21 395502 (2009);
         "P. Giannozzi et al., J. Phys.:Condens. Matter 29 465901 (2017);
         "P. Giannozzi et al., J. Chem. Phys. 152 154105 (2020);
          URL http://www.quantum-espresso.org", 
     in publications or presentations arising from this work. More details at
     http://www.quantum-espresso.org/quote

     Serial version
     0 MiB available memory on the printing compute node when the environment starts


     Reading xml data from directory:

     ../output/GaAs.save/
     file Ga.rel-pbe-dn-rrkjus_psl.0.2.UPF: wavefunction(s)  4S 3D 3D renormalized

     IMPORTANT: XC functional enforced from input :
     Exchange-correlation= PBE
                           (   1   4   3   4   0   0   0)
     Any further DFT definition will be discarded
     Please, verify this is what you really want


     G-vector sticks info
     --------------------
     sticks:   dense  smooth     PW     G-vecs:    dense   smooth      PW
     Sum        1639     817    241                43599    15353    2445

     Using Slab Decomposition


     Gaussian broadening (read from file): ngauss,degauss=   0    0.002000


     Calling projwave .... 

  Problem Sizes 
  natomwfc =           26
  nbnd     =           26
  nkstot   =           81
  npwx     =         1936
  nkb      =           48


     Atomic states used for projection
     (read from pseudopotential files):

     state #   1: atom   1 (Ga ), wfc  1 (l=0 j=0.5 m_j=-0.5)
     state #   2: atom   1 (Ga ), wfc  1 (l=0 j=0.5 m_j= 0.5)
     state #   3: atom   1 (Ga ), wfc  2 (l=1 j=0.5 m_j=-0.5)
     state #   4: atom   1 (Ga ), wfc  2 (l=1 j=0.5 m_j= 0.5)
     state #   5: atom   1 (Ga ), wfc  3 (l=1 j=1.5 m_j=-1.5)
     state #   6: atom   1 (Ga ), wfc  3 (l=1 j=1.5 m_j=-0.5)
     state #   7: atom   1 (Ga ), wfc  3 (l=1 j=1.5 m_j= 0.5)
     state #   8: atom   1 (Ga ), wfc  3 (l=1 j=1.5 m_j= 1.5)
     state #   9: atom   1 (Ga ), wfc  4 (l=2 j=1.5 m_j=-1.5)
     state #  10: atom   1 (Ga ), wfc  4 (l=2 j=1.5 m_j=-0.5)
     state #  11: atom   1 (Ga ), wfc  4 (l=2 j=1.5 m_j= 0.5)
     state #  12: atom   1 (Ga ), wfc  4 (l=2 j=1.5 m_j= 1.5)
     state #  13: atom   1 (Ga ), wfc  5 (l=2 j=2.5 m_j=-2.5)
     state #  14: atom   1 (Ga ), wfc  5 (l=2 j=2.5 m_j=-1.5)
     state #  15: atom   1 (Ga ), wfc  5 (l=2 j=2.5 m_j=-0.5)
     state #  16: atom   1 (Ga ), wfc  5 (l=2 j=2.5 m_j= 0.5)
     state #  17: atom   1 (Ga ), wfc  5 (l=2 j=2.5 m_j= 1.5)
     state #  18: atom   1 (Ga ), wfc  5 (l=2 j=2.5 m_j= 2.5)
     state #  19: atom   2 (As ), wfc  1 (l=0 j=0.5 m_j=-0.5)
     state #  20: atom   2 (As ), wfc  1 (l=0 j=0.5 m_j= 0.5)
     state #  21: atom   2 (As ), wfc  2 (l=1 j=0.5 m_j=-0.5)
     state #  22: atom   2 (As ), wfc  2 (l=1 j=0.5 m_j= 0.5)
     state #  23: atom   2 (As ), wfc  3 (l=1 j=1.5 m_j=-1.5)
     state #  24: atom   2 (As ), wfc  3 (l=1 j=1.5 m_j=-0.5)
     state #  25: atom   2 (As ), wfc  3 (l=1 j=1.5 m_j= 0.5)
     state #  26: atom   2 (As ), wfc  3 (l=1 j=1.5 m_j= 1.5)

 k =  -0.5000000000  0.5000000000  0.5000000000
==== e(   1) =    -8.80473 eV ==== 
     psi = 0.242*[#   9]+0.242*[#  10]+0.242*[#  11]+0.242*[#  12]+0.005*[#  19]
          +0.005*[#  20]+0.004*[#  14]+0.004*[#  17]+0.003*[#  13]+0.003*[#  18]
          +0.003*[#  15]+0.003*[#  16]
    |psi|^2 = 1.000
==== e(   2) =    -8.80473 eV ==== 
     psi = 0.242*[#   9]+0.242*[#  10]+0.242*[#  11]+0.242*[#  12]+0.005*[#  19]
          +0.005*[#  20]+0.004*[#  14]+0.004*[#  17]+0.003*[#  13]+0.003*[#  18]
          +0.003*[#  15]+0.003*[#  16]
    |psi|^2 = 1.000
==== e(   3) =    -8.78393 eV ==== 
     psi = 0.249*[#   9]+0.249*[#  10]+0.249*[#  11]+0.249*[#  12]
    |psi|^2 = 1.000
==== e(   4) =    -8.78393 eV ==== 
     psi = 0.249*[#   9]+0.249*[#  10]+0.249*[#  11]+0.249*[#  12]
    |psi|^2 = 1.000
==== e(   5) =    -8.36579 eV ==== 
     psi = 0.356*[#  14]+0.356*[#  17]+0.097*[#  13]+0.097*[#  18]+0.032*[#  15]
          +0.032*[#  16]+0.005*[#  19]+0.005*[#  20]+0.004*[#   9]+0.004*[#  10]
          +0.004*[#  11]+0.004*[#  12]
    |psi|^2 = 1.000
==== e(   6) =    -8.36579 eV ==== 
     psi = 0.356*[#  14]+0.356*[#  17]+0.097*[#  13]+0.097*[#  18]+0.032*[#  15]
          +0.032*[#  16]+0.005*[#  19]+0.005*[#  20]+0.004*[#   9]+0.004*[#  10]
          +0.004*[#  11]+0.004*[#  12]
    |psi|^2 = 1.000
==== e(   7) =    -8.33115 eV ==== 
     psi = 0.213*[#  15]+0.213*[#  16]+0.189*[#  13]+0.189*[#  18]+0.093*[#  14]
          +0.093*[#  17]+0.001*[#   9]+0.001*[#  10]+0.001*[#  11]+0.001*[#  12]
          
    |psi|^2 = 1.000
==== e(   8) =    -8.33115 eV ==== 
     psi = 0.213*[#  15]+0.213*[#  16]+0.189*[#  13]+0.189*[#  18]+0.093*[#  14]
          +0.093*[#  17]+0.001*[#   9]+0.001*[#  10]+0.001*[#  11]+0.001*[#  12]
          
    |psi|^2 = 1.000
==== e(   9) =    -8.29632 eV ==== 
     psi = 0.249*[#  15]+0.249*[#  16]+0.208*[#  13]+0.208*[#  18]+0.042*[#  14]
          +0.042*[#  17]
    |psi|^2 = 1.000
==== e(  10) =    -8.29632 eV ==== 
     psi = 0.249*[#  15]+0.249*[#  16]+0.208*[#  13]+0.208*[#  18]+0.042*[#  14]
          +0.042*[#  17]
    |psi|^2 = 1.000
==== e(  11) =    -4.56996 eV ==== 
     psi = 0.315*[#  19]+0.315*[#  20]+0.072*[#   1]+0.072*[#   2]+0.030*[#   5]
          +0.030*[#   6]+0.030*[#   7]+0.030*[#   8]+0.030*[#   3]+0.030*[#   4]
          +0.004*[#  14]+0.004*[#  17]+0.004*[#  23]+0.004*[#  24]+0.004*[#  25]
          +0.004*[#  26]+0.003*[#  21]+0.003*[#  22]+0.002*[#  13]+0.002*[#  18]
          +0.002*[#   9]+0.002*[#  10]+0.002*[#  11]+0.002*[#  12]+0.002*[#  15]
          +0.002*[#  16]
    |psi|^2 = 0.998
==== e(  12) =    -4.56996 eV ==== 
     psi = 0.315*[#  19]+0.315*[#  20]+0.072*[#   1]+0.072*[#   2]+0.030*[#   5]
          +0.030*[#   6]+0.030*[#   7]+0.030*[#   8]+0.030*[#   3]+0.030*[#   4]
          +0.004*[#  14]+0.004*[#  17]+0.004*[#  23]+0.004*[#  24]+0.004*[#  25]
          +0.004*[#  26]+0.003*[#  21]+0.003*[#  22]+0.002*[#  13]+0.002*[#  18]
          +0.002*[#   9]+0.002*[#  10]+0.002*[#  11]+0.002*[#  12]+0.002*[#  15]
          +0.002*[#  16]
    |psi|^2 = 0.998
==== e(  13) =    -0.19597 eV ==== 
     psi = 0.160*[#   1]+0.160*[#   2]+0.079*[#  21]+0.079*[#  22]+0.076*[#  23]
          +0.076*[#  24]+0.076*[#  25]+0.076*[#  26]+0.030*[#   5]+0.030*[#   6]
          +0.030*[#   7]+0.030*[#   8]+0.030*[#   3]+0.030*[#   4]+0.013*[#  19]
          +0.013*[#  20]
    |psi|^2 = 0.989
==== e(  14) =    -0.19597 eV ==== 
     psi = 0.160*[#   1]+0.160*[#   2]+0.079*[#  21]+0.079*[#  22]+0.076*[#  23]
          +0.076*[#  24]+0.076*[#  25]+0.076*[#  26]+0.030*[#   5]+0.030*[#   6]
          +0.030*[#   7]+0.030*[#   8]+0.030*[#   3]+0.030*[#   4]+0.013*[#  19]
          +0.013*[#  20]
    |psi|^2 = 0.989
==== e(  15) =     5.02015 eV ==== 
     psi = 0.249*[#  21]+0.249*[#  22]+0.087*[#   3]+0.087*[#   4]+0.060*[#  23]
          +0.060*[#  24]+0.060*[#  25]+0.060*[#  26]+0.021*[#   5]+0.021*[#   6]
          +0.021*[#   7]+0.021*[#   8]
    |psi|^2 = 0.998
==== e(  16) =     5.02015 eV ==== 
     psi = 0.249*[#  21]+0.249*[#  22]+0.087*[#   3]+0.087*[#   4]+0.060*[#  23]
          +0.060*[#  24]+0.060*[#  25]+0.060*[#  26]+0.021*[#   5]+0.021*[#   6]
          +0.021*[#   7]+0.021*[#   8]
    |psi|^2 = 0.998
==== e(  17) =     5.22210 eV ==== 
     psi = 0.184*[#  23]+0.184*[#  24]+0.184*[#  25]+0.184*[#  26]+0.064*[#   5]
          +0.064*[#   6]+0.064*[#   7]+0.064*[#   8]
    |psi|^2 = 0.998
==== e(  18) =     5.22210 eV ==== 
     psi = 0.184*[#  23]+0.184*[#  24]+0.184*[#  25]+0.184*[#  26]+0.064*[#   5]
          +0.064*[#   6]+0.064*[#   7]+0.064*[#   8]
    |psi|^2 = 0.998
==== e(  19) =     7.04849 eV ==== 
     psi = 0.188*[#   1]+0.188*[#   2]+0.122*[#  19]+0.122*[#  20]+0.045*[#   3]
          +0.045*[#   4]+0.040*[#   5]+0.040*[#   6]+0.040*[#   7]+0.040*[#   8]
          +0.018*[#  23]+0.018*[#  24]+0.018*[#  25]+0.018*[#  26]+0.017*[#  21]
          +0.017*[#  22]
    |psi|^2 = 0.978
==== e(  20) =     7.04849 eV ==== 
     psi = 0.188*[#   1]+0.188*[#   2]+0.122*[#  19]+0.122*[#  20]+0.045*[#   3]
          +0.045*[#   4]+0.040*[#   5]+0.040*[#   6]+0.040*[#   7]+0.040*[#   8]
          +0.018*[#  23]+0.018*[#  24]+0.018*[#  25]+0.018*[#  26]+0.017*[#  21]
          +0.017*[#  22]
    |psi|^2 = 0.978
==== e(  21) =    10.74718 eV ==== 
     psi = 0.205*[#   3]+0.205*[#   4]+0.069*[#  21]+0.069*[#  22]+0.052*[#   5]
          +0.052*[#   6]+0.052*[#   7]+0.052*[#   8]+0.018*[#  23]+0.018*[#  24]
          +0.018*[#  25]+0.018*[#  26]
    |psi|^2 = 0.828
==== e(  22) =    10.74718 eV ==== 
     psi = 0.205*[#   3]+0.205*[#   4]+0.069*[#  21]+0.069*[#  22]+0.052*[#   5]
          +0.052*[#   6]+0.052*[#   7]+0.052*[#   8]+0.018*[#  23]+0.018*[#  24]
          +0.018*[#  25]+0.018*[#  26]
    |psi|^2 = 0.828
==== e(  23) =    10.84127 eV ==== 
     psi = 0.153*[#   5]+0.153*[#   6]+0.153*[#   7]+0.153*[#   8]+0.052*[#  23]
          +0.052*[#  24]+0.052*[#  25]+0.052*[#  26]
    |psi|^2 = 0.822
==== e(  24) =    10.84127 eV ==== 
     psi = 0.153*[#   5]+0.153*[#   6]+0.153*[#   7]+0.153*[#   8]+0.052*[#  23]
          +0.052*[#  24]+0.052*[#  25]+0.052*[#  26]
    |psi|^2 = 0.822
==== e(  25) =    13.93397 eV ==== 
     psi = 0.019*[#   1]+0.019*[#   2]+0.017*[#   5]+0.017*[#   6]+0.017*[#   7]
          +0.017*[#   8]+0.016*[#  23]+0.016*[#  24]+0.016*[#  25]+0.016*[#  26]
          +0.015*[#   3]+0.015*[#   4]+0.015*[#  21]+0.015*[#  22]+0.010*[#  19]
          +0.010*[#  20]
    |psi|^2 = 0.248
==== e(  26) =    13.93397 eV ==== 
     psi = 0.019*[#   1]+0.019*[#   2]+0.017*[#   5]+0.017*[#   6]+0.017*[#   7]
          +0.017*[#   8]+0.016*[#  23]+0.016*[#  24]+0.016*[#  25]+0.016*[#  26]
          +0.015*[#   3]+0.015*[#   4]+0.015*[#  21]+0.015*[#  22]+0.010*[#  19]
          +0.010*[#  20]
    |psi|^2 = 0.248

 k =  -0.4750000000  0.4750000000  0.4750000000
==== e(   1) =    -8.80460 eV ==== 
     psi = 0.242*[#   9]+0.242*[#  10]+0.242*[#  11]+0.242*[#  12]+0.005*[#  19]
          +0.005*[#  20]+0.003*[#  14]+0.003*[#  17]+0.003*[#  13]+0.003*[#  18]
          +0.003*[#  15]+0.003*[#  16]
    |psi|^2 = 1.000
==== e(   2) =    -8.80460 eV ==== 
     psi = 0.242*[#   9]+0.242*[#  10]+0.242*[#  11]+0.242*[#  12]+0.005*[#  19]
          +0.005*[#  20]+0.003*[#  14]+0.003*[#  17]+0.003*[#  13]+0.003*[#  18]
          +0.003*[#  15]+0.003*[#  16]
    |psi|^2 = 1.000
==== e(   3) =    -8.78434 eV ==== 
     psi = 0.249*[#   9]+0.249*[#  10]+0.249*[#  11]+0.249*[#  12]
    |psi|^2 = 1.000
==== e(   4) =    -8.78356 eV ==== 
     psi = 0.249*[#   9]+0.249*[#  10]+0.249*[#  11]+0.249*[#  12]
    |psi|^2 = 1.000
==== e(   5) =    -8.36574 eV ==== 
     psi = 0.356*[#  14]+0.356*[#  17]+0.098*[#  13]+0.098*[#  18]+0.032*[#  15]
          +0.032*[#  16]+0.005*[#  19]+0.005*[#  20]+0.004*[#   9]+0.004*[#  10]
          +0.004*[#  11]+0.004*[#  12]
    |psi|^2 = 1.000
==== e(   6) =    -8.36574 eV ==== 
     psi = 0.358*[#  14]+0.358*[#  17]+0.095*[#  13]+0.095*[#  18]+0.032*[#  15]
          +0.032*[#  16]+0.005*[#  19]+0.005*[#  20]+0.004*[#   9]+0.004*[#  10]
          +0.004*[#  11]+0.004*[#  12]
    |psi|^2 = 1.000
==== e(   7) =    -8.33107 eV ==== 
     psi = 0.213*[#  15]+0.213*[#  16]+0.190*[#  13]+0.190*[#  18]+0.092*[#  14]
          +0.092*[#  17]+0.001*[#   9]+0.001*[#  10]+0.001*[#  11]+0.001*[#  12]
          
    |psi|^2 = 1.000
==== e(   8) =    -8.33107 eV ==== 
     psi = 0.213*[#  15]+0.213*[#  16]+0.188*[#  13]+0.188*[#  18]+0.094*[#  14]
          +0.094*[#  17]+0.001*[#   9]+0.001*[#  10]+0.001*[#  11]+0.001*[#  12]
          
    |psi|^2 = 1.000
==== e(   9) =    -8.29685 eV ==== 
     psi = 0.249*[#  15]+0.249*[#  16]+0.208*[#  13]+0.208*[#  18]+0.042*[#  14]
          +0.042*[#  17]
    |psi|^2 = 1.000
==== e(  10) =    -8.29597 eV ==== 
     psi = 0.249*[#  15]+0.249*[#  16]+0.208*[#  13]+0.208*[#  18]+0.042*[#  14]
          +0.042*[#  17]
    |psi|^2 = 1.000
==== e(  11) =    -4.58641 eV ==== 
     psi = 0.313*[#  19]+0.313*[#  20]+0.072*[#   1]+0.072*[#   2]+0.030*[#   5]
          +0.030*[#   6]+0.030*[#   7]+0.030*[#   8]+0.030*[#   3]+0.030*[#   4]
          +0.004*[#  14]+0.004*[#  17]+0.004*[#  23]+0.004*[#  24]+0.004*[#  25]
          +0.004*[#  26]+0.004*[#  21]+0.004*[#  22]+0.002*[#  13]+0.002*[#  18]
          +0.002*[#   9]+0.002*[#  10]+0.002*[#  11]+0.002*[#  12]+0.002*[#  15]
          +0.002*[#  16]
    |psi|^2 = 0.998
==== e(  12) =    -4.58641 eV ==== 
     psi = 0.313*[#  19]+0.313*[#  20]+0.072*[#   1]+0.072*[#   2]+0.030*[#   5]
          +0.030*[#   6]+0.030*[#   7]+0.030*[#   8]+0.030*[#   3]+0.030*[#   4]
          +0.004*[#  14]+0.004*[#  17]+0.004*[#  23]+0.004*[#  24]+0.004*[#  25]
          +0.004*[#  26]+0.004*[#  21]+0.004*[#  22]+0.002*[#  13]+0.002*[#  18]
          +0.002*[#   9]+0.002*[#  10]+0.002*[#  11]+0.002*[#  12]+0.002*[#  15]
          +0.002*[#  16]
    |psi|^2 = 0.998
==== e(  13) =    -0.16558 eV ==== 
     psi = 0.159*[#   1]+0.159*[#   2]+0.079*[#  21]+0.079*[#  22]+0.076*[#  23]
          +0.076*[#  24]+0.076*[#  25]+0.076*[#  26]+0.030*[#   5]+0.030*[#   6]
          +0.030*[#   7]+0.030*[#   8]+0.029*[#   3]+0.029*[#   4]+0.015*[#  19]
          +0.015*[#  20]
    |psi|^2 = 0.989
==== e(  14) =    -0.16558 eV ==== 
     psi = 0.159*[#   1]+0.159*[#   2]+0.079*[#  21]+0.079*[#  22]+0.076*[#  23]
          +0.076*[#  24]+0.076*[#  25]+0.076*[#  26]+0.030*[#   5]+0.030*[#   6]
          +0.030*[#   7]+0.030*[#   8]+0.029*[#   3]+0.029*[#   4]+0.015*[#  19]
          +0.015*[#  20]
    |psi|^2 = 0.989
==== e(  15) =     5.02484 eV ==== 
     psi = 0.249*[#  21]+0.249*[#  22]+0.087*[#   3]+0.087*[#   4]+0.060*[#  23]
          +0.060*[#  24]+0.060*[#  25]+0.060*[#  26]+0.021*[#   5]+0.021*[#   6]
          +0.021*[#   7]+0.021*[#   8]
    |psi|^2 = 0.998
==== e(  16) =     5.02484 eV ==== 
     psi = 0.249*[#  21]+0.249*[#  22]+0.087*[#   3]+0.087*[#   4]+0.060*[#  23]
          +0.060*[#  24]+0.060*[#  25]+0.060*[#  26]+0.021*[#   5]+0.021*[#   6]
          +0.021*[#   7]+0.021*[#   8]
    |psi|^2 = 0.998
==== e(  17) =     5.22660 eV ==== 
     psi = 0.184*[#  23]+0.184*[#  24]+0.184*[#  25]+0.184*[#  26]+0.064*[#   5]
          +0.064*[#   6]+0.064*[#   7]+0.064*[#   8]
    |psi|^2 = 0.998
==== e(  18) =     5.22705 eV ==== 
     psi = 0.184*[#  23]+0.184*[#  24]+0.184*[#  25]+0.184*[#  26]+0.064*[#   5]
          +0.064*[#   6]+0.064*[#   7]+0.064*[#   8]
    |psi|^2 = 0.997
==== e(  19) =     7.05343 eV ==== 
     psi = 0.188*[#   1]+0.188*[#   2]+0.122*[#  19]+0.122*[#  20]+0.045*[#   3]
          +0.045*[#   4]+0.040*[#   5]+0.040*[#   6]+0.040*[#   7]+0.040*[#   8]
          +0.018*[#  23]+0.018*[#  24]+0.018*[#  25]+0.018*[#  26]+0.017*[#  21]
          +0.017*[#  22]
    |psi|^2 = 0.978
==== e(  20) =     7.05343 eV ==== 
     psi = 0.188*[#   1]+0.188*[#   2]+0.122*[#  19]+0.122*[#  20]+0.045*[#   3]
          +0.045*[#   4]+0.040*[#   5]+0.040*[#   6]+0.040*[#   7]+0.040*[#   8]
          +0.018*[#  23]+0.018*[#  24]+0.018*[#  25]+0.018*[#  26]+0.017*[#  21]
          +0.017*[#  22]
    |psi|^2 = 0.978
==== e(  21) =    10.74931 eV ==== 
     psi = 0.205*[#   3]+0.205*[#   4]+0.069*[#  21]+0.069*[#  22]+0.052*[#   5]
          +0.052*[#   6]+0.052*[#   7]+0.052*[#   8]+0.018*[#  23]+0.018*[#  24]
          +0.018*[#  25]+0.018*[#  26]
    |psi|^2 = 0.829
==== e(  22) =    10.74931 eV ==== 
     psi = 0.205*[#   3]+0.205*[#   4]+0.069*[#  21]+0.069*[#  22]+0.052*[#   5]
          +0.052*[#   6]+0.052*[#   7]+0.052*[#   8]+0.018*[#  23]+0.018*[#  24]
          +0.018*[#  25]+0.018*[#  26]
    |psi|^2 = 0.829
==== e(  23) =    10.84370 eV ==== 
     psi = 0.153*[#   5]+0.153*[#   6]+0.153*[#   7]+0.153*[#   8]+0.052*[#  23]
          +0.052*[#  24]+0.052*[#  25]+0.052*[#  26]
    |psi|^2 = 0.823
==== e(  24) =    10.84396 eV ==== 
     psi = 0.153*[#   5]+0.153*[#   6]+0.153*[#   7]+0.153*[#   8]+0.052*[#  23]
          +0.052*[#  24]+0.052*[#  25]+0.052*[#  26]
    |psi|^2 = 0.823
==== e(  25) =    13.93300 eV ==== 
     psi = 0.020*[#   1]+0.020*[#   2]+0.017*[#   5]+0.017*[#   6]+0.017*[#   7]
          +0.017*[#   8]+0.016*[#  23]+0.016*[#  24]+0.016*[#  25]+0.016*[#  26]
          +0.016*[#   3]+0.016*[#   4]+0.015*[#  21]+0.015*[#  22]+0.010*[#  19]
          +0.010*[#  20]
    |psi|^2 = 0.259
==== e(  26) =    13.93300 eV ==== 
     psi = 0.020*[#   1]+0.020*[#   2]+0.017*[#   5]+0.017*[#   6]+0.017*[#   7]
          +0.017*[#   8]+0.016*[#  23]+0.016*[#  24]+0.016*[#  25]+0.016*[#  26]
          +0.016*[#   3]+0.016*[#   4]+0.015*[#  21]+0.015*[#  22]+0.010*[#  19]
          +0.010*[#  20]
    |psi|^2 = 0.259

 k =  -0.4500000000  0.4500000000  0.4500000000
==== e(   1) =    -8.80430 eV ==== 
     psi = 0.242*[#   9]+0.242*[#  10]+0.242*[#  11]+0.242*[#  12]+0.005*[#  19]
          +0.005*[#  20]+0.003*[#  14]+0.003*[#  17]+0.003*[#  13]+0.003*[#  18]
          +0.003*[#  15]+0.003*[#  16]
    |psi|^2 = 1.000
==== e(   2) =    -8.80430 eV ==== 
     psi = 0.242*[#   9]+0.242*[#  10]+0.242*[#  11]+0.242*[#  12]+0.005*[#  19]
          +0.005*[#  20]+0.003*[#  14]+0.003*[#  17]+0.003*[#  13]+0.003*[#  18]
          +0.003*[#  15]+0.003*[#  16]
    |psi|^2 = 1.000
==== e(   3) =    -8.78479 eV ==== 
     psi = 0.249*[#   9]+0.249*[#  10]+0.249*[#  11]+0.249*[#  12]
    |psi|^2 = 1.000
==== e(   4) =    -8.78325 eV ==== 
     psi = 0.249*[#   9]+0.249*[#  10]+0.249*[#  11]+0.249*[#  12]
    |psi|^2 = 1.000
==== e(   5) =    -8.36567 eV ==== 
     psi = 0.356*[#  14]+0.356*[#  17]+0.098*[#  13]+0.098*[#  18]+0.031*[#  15]
          +0.031*[#  16]+0.005*[#  19]+0.005*[#  20]+0.004*[#   9]+0.004*[#  10]
          +0.004*[#  11]+0.004*[#  12]
    |psi|^2 = 1.000
==== e(   6) =    -8.36567 eV ==== 
     psi = 0.361*[#  14]+0.361*[#  17]+0.094*[#  13]+0.094*[#  18]+0.031*[#  15]
          +0.031*[#  16]+0.005*[#  19]+0.005*[#  20]+0.004*[#   9]+0.004*[#  10]
          +0.004*[#  11]+0.004*[#  12]
    |psi|^2 = 1.000
==== e(   7) =    -8.33084 eV ==== 
     psi = 0.214*[#  15]+0.214*[#  16]+0.192*[#  13]+0.192*[#  18]+0.089*[#  14]
          +0.089*[#  17]+0.001*[#   9]+0.001*[#  10]+0.001*[#  11]+0.001*[#  12]
          
    |psi|^2 = 1.000
==== e(   8) =    -8.33084 eV ==== 
     psi = 0.214*[#  15]+0.214*[#  16]+0.187*[#  13]+0.187*[#  18]+0.094*[#  14]
          +0.094*[#  17]+0.001*[#   9]+0.001*[#  10]+0.001*[#  11]+0.001*[#  12]
          
    |psi|^2 = 1.000
==== e(   9) =    -8.29762 eV ==== 
     psi = 0.249*[#  15]+0.249*[#  16]+0.208*[#  13]+0.208*[#  18]+0.042*[#  14]
          +0.042*[#  17]
    |psi|^2 = 1.000
==== e(  10) =    -8.29588 eV ==== 
     psi = 0.249*[#  15]+0.249*[#  16]+0.208*[#  13]+0.208*[#  18]+0.042*[#  14]
          +0.042*[#  17]
    |psi|^2 = 1.000
==== e(  11) =    -4.63424 eV ==== 
     psi = 0.309*[#  19]+0.309*[#  20]+0.075*[#   1]+0.075*[#   2]+0.030*[#   5]
          +0.030*[#   6]+0.030*[#   7]+0.030*[#   8]+0.030*[#   3]+0.030*[#   4]
          +0.004*[#  14]+0.004*[#  17]+0.004*[#  23]+0.004*[#  24]+0.004*[#  25]
          +0.004*[#  26]+0.004*[#  21]+0.004*[#  22]+0.002*[#  13]+0.002*[#  18]
          +0.002*[#   9]+0.002*[#  10]+0.002*[#  11]+0.002*[#  12]+0.002*[#  15]
          +0.002*[#  16]
    |psi|^2 = 0.998
==== e(  12) =    -4.63424 eV ==== 
     psi = 0.309*[#  19]+0.309*[#  20]+0.075*[#   1]+0.075*[#   2]+0.030*[#   5]
          +0.030*[#   6]+0.030*[#   7]+0.030*[#   8]+0.030*[#   3]+0.030*[#   4]
          +0.004*[#  14]+0.004*[#  17]+0.004*[#  23]+0.004*[#  24]+0.004*[#  25]
          +0.004*[#  26]+0.004*[#  21]+0.004*[#  22]+0.002*[#  13]+0.002*[#  18]
          +0.002*[#   9]+0.002*[#  10]+0.002*[#  11]+0.002*[#  12]+0.002*[#  15]
          +0.002*[#  16]
    |psi|^2 = 0.998
==== e(  13) =    -0.07596 eV ==== 
     psi = 0.157*[#   1]+0.157*[#   2]+0.079*[#  21]+0.079*[#  22]+0.076*[#  23]
          +0.076*[#  24]+0.076*[#  25]+0.076*[#  26]+0.029*[#   5]+0.029*[#   6]
          +0.029*[#   7]+0.029*[#   8]+0.029*[#   3]+0.029*[#   4]+0.019*[#  19]
          +0.019*[#  20]
    |psi|^2 = 0.989
==== e(  14) =    -0.07596 eV ==== 
     psi = 0.157*[#   1]+0.157*[#   2]+0.079*[#  21]+0.079*[#  22]+0.076*[#  23]
          +0.076*[#  24]+0.076*[#  25]+0.076*[#  26]+0.029*[#   5]+0.029*[#   6]
          +0.029*[#   7]+0.029*[#   8]+0.029*[#   3]+0.029*[#   4]+0.019*[#  19]
          +0.019*[#  20]
    |psi|^2 = 0.989
==== e(  15) =     5.03888 eV ==== 
     psi = 0.250*[#  21]+0.250*[#  22]+0.086*[#   3]+0.086*[#   4]+0.060*[#  23]
          +0.060*[#  24]+0.060*[#  25]+0.060*[#  26]+0.020*[#   5]+0.020*[#   6]
          +0.020*[#   7]+0.020*[#   8]
    |psi|^2 = 0.998
==== e(  16) =     5.03888 eV ==== 
     psi = 0.250*[#  21]+0.250*[#  22]+0.086*[#   3]+0.086*[#   4]+0.060*[#  23]
          +0.060*[#  24]+0.060*[#  25]+0.060*[#  26]+0.020*[#   5]+0.020*[#   6]
          +0.020*[#   7]+0.020*[#   8]
    |psi|^2 = 0.998
==== e(  17) =     5.24051 eV ==== 
     psi = 0.185*[#  23]+0.185*[#  24]+0.185*[#  25]+0.185*[#  26]+0.064*[#   5]
          +0.064*[#   6]+0.064*[#   7]+0.064*[#   8]
    |psi|^2 = 0.997
==== e(  18) =     5.24142 eV ==== 
     psi = 0.185*[#  23]+0.185*[#  24]+0.185*[#  25]+0.185*[#  26]+0.064*[#   5]
          +0.064*[#   6]+0.064*[#   7]+0.064*[#   8]
    |psi|^2 = 0.997
==== e(  19) =     7.06816 eV ==== 
     psi = 0.188*[#   1]+0.188*[#   2]+0.121*[#  19]+0.121*[#  20]+0.045*[#   3]
          +0.045*[#   4]+0.040*[#   5]+0.040*[#   6]+0.040*[#   7]+0.040*[#   8]
          +0.018*[#  23]+0.018*[#  24]+0.018*[#  25]+0.018*[#  26]+0.017*[#  21]
          +0.017*[#  22]
    |psi|^2 = 0.979
==== e(  20) =     7.06816 eV ==== 
     psi = 0.188*[#   1]+0.188*[#   2]+0.121*[#  19]+0.121*[#  20]+0.045*[#   3]
          +0.045*[#   4]+0.040*[#   5]+0.040*[#   6]+0.040*[#   7]+0.040*[#   8]
          +0.018*[#  23]+0.018*[#  24]+0.018*[#  25]+0.018*[#  26]+0.017*[#  21]
          +0.017*[#  22]
    |psi|^2 = 0.979
==== e(  21) =    10.75531 eV ==== 
     psi = 0.206*[#   3]+0.206*[#   4]+0.069*[#  21]+0.069*[#  22]+0.053*[#   5]
          +0.053*[#   6]+0.053*[#   7]+0.053*[#   8]+0.018*[#  23]+0.018*[#  24]
          +0.018*[#  25]+0.018*[#  26]
    |psi|^2 = 0.832
==== e(  22) =    10.75531 eV ==== 
     psi = 0.206*[#   3]+0.206*[#   4]+0.069*[#  21]+0.069*[#  22]+0.053*[#   5]
          +0.053*[#   6]+0.053*[#   7]+0.053*[#   8]+0.018*[#  23]+0.018*[#  24]
          +0.018*[#  25]+0.018*[#  26]
    |psi|^2 = 0.832
==== e(  23) =    10.85087 eV ==== 
     psi = 0.154*[#   5]+0.154*[#   6]+0.154*[#   7]+0.154*[#   8]+0.052*[#  23]
          +0.052*[#  24]+0.052*[#  25]+0.052*[#  26]
    |psi|^2 = 0.826
==== e(  24) =    10.85141 eV ==== 
     psi = 0.154*[#   5]+0.154*[#   6]+0.154*[#   7]+0.154*[#   8]+0.052*[#  23]
          +0.052*[#  24]+0.052*[#  25]+0.052*[#  26]
    |psi|^2 = 0.826
==== e(  25) =    13.92658 eV ==== 
     psi = 0.023*[#   1]+0.023*[#   2]+0.020*[#   5]+0.020*[#   6]+0.020*[#   7]
          +0.020*[#   8]+0.019*[#  23]+0.019*[#  24]+0.019*[#  25]+0.019*[#  26]
          +0.018*[#   3]+0.018*[#   4]+0.018*[#  21]+0.018*[#  22]+0.011*[#  19]
          +0.011*[#  20]
    |psi|^2 = 0.295
==== e(  26) =    13.92658 eV ==== 
     psi = 0.023*[#   1]+0.023*[#   2]+0.020*[#   5]+0.020*[#   6]+0.020*[#   7]
          +0.020*[#   8]+0.019*[#  23]+0.019*[#  24]+0.019*[#  25]+0.019*[#  26]
          +0.018*[#   3]+0.018*[#   4]+0.018*[#  21]+0.018*[#  22]+0.011*[#  19]
          +0.011*[#  20]
    |psi|^2 = 0.295

 k =  -0.4250000000  0.4250000000  0.4250000000
==== e(   1) =    -8.80375 eV ==== 
     psi = 0.243*[#   9]+0.243*[#  10]+0.243*[#  11]+0.243*[#  12]+0.005*[#  19]
          +0.005*[#  20]+0.003*[#  14]+0.003*[#  17]+0.003*[#  13]+0.003*[#  18]
          +0.003*[#  15]+0.003*[#  16]
    |psi|^2 = 1.000
==== e(   2) =    -8.80375 eV ==== 
     psi = 0.243*[#   9]+0.243*[#  10]+0.243*[#  11]+0.243*[#  12]+0.005*[#  19]
          +0.005*[#  20]+0.003*[#  14]+0.003*[#  17]+0.003*[#  13]+0.003*[#  15]
          +0.003*[#  16]+0.003*[#  18]
    |psi|^2 = 1.000
==== e(   3) =    -8.78525 eV ==== 
     psi = 0.249*[#   9]+0.249*[#  10]+0.249*[#  11]+0.249*[#  12]
    |psi|^2 = 1.000
==== e(   4) =    -8.78297 eV ==== 
     psi = 0.249*[#   9]+0.249*[#  10]+0.249*[#  11]+0.249*[#  12]
    |psi|^2 = 1.000
==== e(   5) =    -8.36550 eV ==== 
     psi = 0.358*[#  14]+0.358*[#  17]+0.099*[#  13]+0.099*[#  18]+0.029*[#  15]
          +0.029*[#  16]+0.005*[#  19]+0.005*[#  20]+0.004*[#   9]+0.004*[#  10]
          +0.004*[#  11]+0.004*[#  12]
    |psi|^2 = 1.000
==== e(   6) =    -8.36550 eV ==== 
     psi = 0.365*[#  14]+0.365*[#  17]+0.092*[#  13]+0.092*[#  18]+0.029*[#  15]
          +0.029*[#  16]+0.005*[#  19]+0.005*[#  20]+0.004*[#   9]+0.004*[#  10]
          +0.004*[#  11]+0.004*[#  12]
    |psi|^2 = 1.000
==== e(   7) =    -8.33044 eV ==== 
     psi = 0.216*[#  15]+0.216*[#  16]+0.194*[#  13]+0.194*[#  18]+0.085*[#  14]
          +0.085*[#  17]+0.001*[#   9]+0.001*[#  10]+0.001*[#  11]+0.001*[#  12]
          
    |psi|^2 = 1.000
==== e(   8) =    -8.33044 eV ==== 
     psi = 0.216*[#  15]+0.216*[#  16]+0.187*[#  13]+0.187*[#  18]+0.092*[#  14]
          +0.092*[#  17]+0.001*[#   9]+0.001*[#  10]+0.001*[#  11]+0.001*[#  12]
          
    |psi|^2 = 1.000
==== e(   9) =    -8.29854 eV ==== 
     psi = 0.249*[#  15]+0.249*[#  16]+0.208*[#  13]+0.208*[#  18]+0.042*[#  14]
          +0.042*[#  17]
    |psi|^2 = 1.000
==== e(  10) =    -8.29598 eV ==== 
     psi = 0.249*[#  15]+0.249*[#  16]+0.208*[#  13]+0.208*[#  18]+0.042*[#  14]
          +0.042*[#  17]
    |psi|^2 = 1.000
==== e(  11) =    -4.70937 eV ==== 
     psi = 0.304*[#  19]+0.304*[#  20]+0.078*[#   1]+0.078*[#   2]+0.031*[#   5]
          +0.031*[#   6]+0.031*[#   7]+0.031*[#   8]+0.030*[#   3]+0.030*[#   4]
          +0.004*[#  23]+0.004*[#  24]+0.004*[#  25]+0.004*[#  26]+0.004*[#  21]
          +0.004*[#  22]+0.004*[#  14]+0.004*[#  17]+0.002*[#  13]+0.002*[#  18]
          +0.002*[#   9]+0.002*[#  10]+0.002*[#  11]+0.002*[#  12]+0.002*[#  15]
          +0.002*[#  16]
    |psi|^2 = 0.998
==== e(  12) =    -4.70937 eV ==== 
     psi = 0.304*[#  19]+0.304*[#  20]+0.078*[#   1]+0.078*[#   2]+0.031*[#   5]
          +0.031*[#   6]+0.031*[#   7]+0.031*[#   8]+0.030*[#   3]+0.030*[#   4]
          +0.004*[#  23]+0.004*[#  24]+0.004*[#  25]+0.004*[#  26]+0.004*[#  21]
          +0.004*[#  22]+0.004*[#  14]+0.004*[#  17]+0.002*[#  13]+0.002*[#  18]
          +0.002*[#   9]+0.002*[#  10]+0.002*[#  11]+0.002*[#  12]+0.002*[#  15]
          +0.002*[#  16]
    |psi|^2 = 0.998
==== e(  13) =     0.06869 eV ==== 
     psi = 0.155*[#   1]+0.155*[#   2]+0.079*[#  21]+0.079*[#  22]+0.075*[#  23]
          +0.075*[#  24]+0.075*[#  25]+0.075*[#  26]+0.028*[#   5]+0.028*[#   6]
          +0.028*[#   7]+0.028*[#   8]+0.028*[#   3]+0.028*[#   4]+0.026*[#  19]
          +0.026*[#  20]
    |psi|^2 = 0.990
==== e(  14) =     0.06869 eV ==== 
     psi = 0.155*[#   1]+0.155*[#   2]+0.079*[#  21]+0.079*[#  22]+0.075*[#  23]
          +0.075*[#  24]+0.075*[#  25]+0.075*[#  26]+0.028*[#   5]+0.028*[#   6]
          +0.028*[#   7]+0.028*[#   8]+0.028*[#   3]+0.028*[#   4]+0.026*[#  19]
          +0.026*[#  20]
    |psi|^2 = 0.990
==== e(  15) =     5.06216 eV ==== 
     psi = 0.250*[#  21]+0.250*[#  22]+0.086*[#   3]+0.086*[#   4]+0.060*[#  23]
          +0.060*[#  24]+0.060*[#  25]+0.060*[#  26]+0.020*[#   5]+0.020*[#   6]
          +0.020*[#   7]+0.020*[#   8]
    |psi|^2 = 0.997
==== e(  16) =     5.06216 eV ==== 
     psi = 0.250*[#  21]+0.250*[#  22]+0.086*[#   3]+0.086*[#   4]+0.060*[#  23]
          +0.060*[#  24]+0.060*[#  25]+0.060*[#  26]+0.020*[#   5]+0.020*[#   6]
          +0.020*[#   7]+0.020*[#   8]
    |psi|^2 = 0.997
==== e(  17) =     5.26376 eV ==== 
     psi = 0.185*[#  23]+0.185*[#  24]+0.185*[#  25]+0.185*[#  26]+0.064*[#   5]
          +0.064*[#   6]+0.064*[#   7]+0.064*[#   8]
    |psi|^2 = 0.997
==== e(  18) =     5.26510 eV ==== 
     psi = 0.185*[#  23]+0.185*[#  24]+0.185*[#  25]+0.185*[#  26]+0.064*[#   5]
          +0.064*[#   6]+0.064*[#   7]+0.064*[#   8]
    |psi|^2 = 0.997
==== e(  19) =     7.09256 eV ==== 
     psi = 0.189*[#   1]+0.189*[#   2]+0.119*[#  19]+0.119*[#  20]+0.045*[#   3]
          +0.045*[#   4]+0.041*[#   5]+0.041*[#   6]+0.041*[#   7]+0.041*[#   8]
          +0.019*[#  23]+0.019*[#  24]+0.019*[#  25]+0.019*[#  26]+0.017*[#  21]
          +0.017*[#  22]
    |psi|^2 = 0.979
==== e(  20) =     7.09256 eV ==== 
     psi = 0.189*[#   1]+0.189*[#   2]+0.119*[#  19]+0.119*[#  20]+0.045*[#   3]
          +0.045*[#   4]+0.041*[#   5]+0.041*[#   6]+0.041*[#   7]+0.041*[#   8]
          +0.019*[#  23]+0.019*[#  24]+0.019*[#  25]+0.019*[#  26]+0.017*[#  21]
          +0.017*[#  22]
    |psi|^2 = 0.979
==== e(  21) =    10.76405 eV ==== 
     psi = 0.207*[#   3]+0.207*[#   4]+0.069*[#  21]+0.069*[#  22]+0.053*[#   5]
          +0.053*[#   6]+0.053*[#   7]+0.053*[#   8]+0.018*[#  23]+0.018*[#  24]
          +0.018*[#  25]+0.018*[#  26]
    |psi|^2 = 0.837
==== e(  22) =    10.76405 eV ==== 
     psi = 0.207*[#   3]+0.207*[#   4]+0.069*[#  21]+0.069*[#  22]+0.053*[#   5]
          +0.053*[#   6]+0.053*[#   7]+0.053*[#   8]+0.018*[#  23]+0.018*[#  24]
          +0.018*[#  25]+0.018*[#  26]
    |psi|^2 = 0.837
==== e(  23) =    10.86165 eV ==== 
     psi = 0.155*[#   5]+0.155*[#   6]+0.155*[#   7]+0.155*[#   8]+0.052*[#  23]
          +0.052*[#  24]+0.052*[#  25]+0.052*[#  26]
    |psi|^2 = 0.831
==== e(  24) =    10.86248 eV ==== 
     psi = 0.155*[#   5]+0.155*[#   6]+0.155*[#   7]+0.155*[#   8]+0.052*[#  23]
          +0.052*[#  24]+0.052*[#  25]+0.052*[#  26]
    |psi|^2 = 0.831
==== e(  25) =    13.90215 eV ==== 
     psi = 0.028*[#   1]+0.028*[#   2]+0.025*[#   5]+0.025*[#   6]+0.025*[#   7]
          +0.025*[#   8]+0.023*[#  23]+0.023*[#  24]+0.023*[#  25]+0.023*[#  26]
          +0.023*[#   3]+0.023*[#   4]+0.022*[#  21]+0.022*[#  22]+0.014*[#  19]
          +0.014*[#  20]
    |psi|^2 = 0.368
==== e(  26) =    13.90215 eV ==== 
     psi = 0.028*[#   1]+0.028*[#   2]+0.025*[#   5]+0.025*[#   6]+0.025*[#   7]
          +0.025*[#   8]+0.023*[#  23]+0.023*[#  24]+0.023*[#  25]+0.023*[#  26]
          +0.023*[#   3]+0.023*[#   4]+0.022*[#  21]+0.022*[#  22]+0.014*[#  19]
          +0.014*[#  20]
    |psi|^2 = 0.368

 k =  -0.4000000000  0.4000000000  0.4000000000
==== e(   1) =    -8.80299 eV ==== 
     psi = 0.243*[#   9]+0.243*[#  10]+0.243*[#  11]+0.243*[#  12]+0.005*[#  19]
          +0.005*[#  20]+0.003*[#  14]+0.003*[#  17]+0.003*[#  13]+0.003*[#  18]
          +0.003*[#  15]+0.003*[#  16]
    |psi|^2 = 1.000
==== e(   2) =    -8.80299 eV ==== 
     psi = 0.243*[#   9]+0.243*[#  10]+0.243*[#  11]+0.243*[#  12]+0.005*[#  19]
          +0.005*[#  20]+0.003*[#  14]+0.003*[#  17]+0.003*[#  13]+0.003*[#  15]
          +0.003*[#  16]+0.003*[#  18]
    |psi|^2 = 1.000
==== e(   3) =    -8.78572 eV ==== 
     psi = 0.249*[#   9]+0.249*[#  10]+0.249*[#  11]+0.249*[#  12]
    |psi|^2 = 1.000
==== e(   4) =    -8.78277 eV ==== 
     psi = 0.249*[#   9]+0.249*[#  10]+0.249*[#  11]+0.249*[#  12]
    |psi|^2 = 1.000
==== e(   5) =    -8.36525 eV ==== 
     psi = 0.361*[#  14]+0.361*[#  17]+0.099*[#  13]+0.099*[#  18]+0.027*[#  15]
          +0.027*[#  16]+0.005*[#  19]+0.005*[#  20]+0.004*[#   9]+0.004*[#  10]
          +0.004*[#  11]+0.004*[#  12]
    |psi|^2 = 1.000
==== e(   6) =    -8.36525 eV ==== 
     psi = 0.370*[#  14]+0.370*[#  17]+0.090*[#  13]+0.090*[#  18]+0.027*[#  15]
          +0.027*[#  16]+0.005*[#  19]+0.005*[#  20]+0.004*[#   9]+0.004*[#  10]
          +0.004*[#  11]+0.004*[#  12]
    |psi|^2 = 1.000
==== e(   7) =    -8.32988 eV ==== 
     psi = 0.219*[#  15]+0.219*[#  16]+0.196*[#  13]+0.196*[#  18]+0.080*[#  14]
          +0.080*[#  17]+0.001*[#   9]+0.001*[#  10]+0.001*[#  11]+0.001*[#  12]
          
    |psi|^2 = 1.000
==== e(   8) =    -8.32988 eV ==== 
     psi = 0.219*[#  15]+0.219*[#  16]+0.187*[#  13]+0.187*[#  18]+0.089*[#  14]
          +0.089*[#  17]+0.001*[#   9]+0.001*[#  10]+0.001*[#  11]+0.001*[#  12]
          
    |psi|^2 = 1.000
==== e(   9) =    -8.29960 eV ==== 
     psi = 0.249*[#  15]+0.249*[#  16]+0.208*[#  13]+0.208*[#  18]+0.042*[#  14]
          +0.042*[#  17]
    |psi|^2 = 1.000
==== e(  10) =    -8.29628 eV ==== 
     psi = 0.249*[#  15]+0.249*[#  16]+0.208*[#  13]+0.208*[#  18]+0.042*[#  14]
          +0.042*[#  17]
    |psi|^2 = 1.000
==== e(  11) =    -4.80618 eV ==== 
     psi = 0.297*[#  19]+0.297*[#  20]+0.082*[#   1]+0.082*[#   2]+0.032*[#   5]
          +0.032*[#   6]+0.032*[#   7]+0.032*[#   8]+0.031*[#   3]+0.031*[#   4]
          +0.005*[#  23]+0.005*[#  24]+0.005*[#  25]+0.005*[#  26]+0.005*[#  21]
          +0.005*[#  22]+0.004*[#  14]+0.004*[#  17]+0.002*[#  13]+0.002*[#  18]
          +0.002*[#   9]+0.002*[#  10]+0.002*[#  11]+0.002*[#  12]+0.002*[#  15]
          +0.002*[#  16]
    |psi|^2 = 0.997
==== e(  12) =    -4.80618 eV ==== 
     psi = 0.297*[#  19]+0.297*[#  20]+0.082*[#   1]+0.082*[#   2]+0.032*[#   5]
          +0.032*[#   6]+0.032*[#   7]+0.032*[#   8]+0.031*[#   3]+0.031*[#   4]
          +0.005*[#  23]+0.005*[#  24]+0.005*[#  25]+0.005*[#  26]+0.005*[#  21]
          +0.005*[#  22]+0.004*[#  14]+0.004*[#  17]+0.002*[#  13]+0.002*[#  18]
          +0.002*[#   9]+0.002*[#  10]+0.002*[#  11]+0.002*[#  12]+0.002*[#  15]
          +0.002*[#  16]
    |psi|^2 = 0.997
==== e(  13) =     0.26257 eV ==== 
     psi = 0.152*[#   1]+0.152*[#   2]+0.079*[#  21]+0.079*[#  22]+0.075*[#  23]
          +0.075*[#  24]+0.075*[#  25]+0.075*[#  26]+0.033*[#  19]+0.033*[#  20]
          +0.027*[#   5]+0.027*[#   6]+0.027*[#   7]+0.027*[#   8]+0.026*[#   3]
          +0.026*[#   4]
    |psi|^2 = 0.991
==== e(  14) =     0.26257 eV ==== 
     psi = 0.152*[#   1]+0.152*[#   2]+0.079*[#  21]+0.079*[#  22]+0.075*[#  23]
          +0.075*[#  24]+0.075*[#  25]+0.075*[#  26]+0.033*[#  19]+0.033*[#  20]
          +0.027*[#   5]+0.027*[#   6]+0.027*[#   7]+0.027*[#   8]+0.026*[#   3]
          +0.026*[#   4]
    |psi|^2 = 0.991
==== e(  15) =     5.09451 eV ==== 
     psi = 0.251*[#  21]+0.251*[#  22]+0.085*[#   3]+0.085*[#   4]+0.060*[#  23]
          +0.060*[#  24]+0.060*[#  25]+0.060*[#  26]+0.020*[#   5]+0.020*[#   6]
          +0.020*[#   7]+0.020*[#   8]
    |psi|^2 = 0.997
==== e(  16) =     5.09451 eV ==== 
     psi = 0.251*[#  21]+0.251*[#  22]+0.085*[#   3]+0.085*[#   4]+0.060*[#  23]
          +0.060*[#  24]+0.060*[#  25]+0.060*[#  26]+0.020*[#   5]+0.020*[#   6]
          +0.020*[#   7]+0.020*[#   8]
    |psi|^2 = 0.997
==== e(  17) =     5.29615 eV ==== 
     psi = 0.186*[#  23]+0.186*[#  24]+0.186*[#  25]+0.186*[#  26]+0.063*[#   5]
          +0.063*[#   6]+0.063*[#   7]+0.063*[#   8]
    |psi|^2 = 0.997
==== e(  18) =     5.29790 eV ==== 
     psi = 0.186*[#  23]+0.186*[#  24]+0.186*[#  25]+0.186*[#  26]+0.063*[#   5]
          +0.063*[#   6]+0.063*[#   7]+0.063*[#   8]
    |psi|^2 = 0.997
==== e(  19) =     7.12631 eV ==== 
     psi = 0.189*[#   1]+0.189*[#   2]+0.117*[#  19]+0.117*[#  20]+0.046*[#   3]
          +0.046*[#   4]+0.041*[#   5]+0.041*[#   6]+0.041*[#   7]+0.041*[#   8]
          +0.019*[#  23]+0.019*[#  24]+0.019*[#  25]+0.019*[#  26]+0.018*[#  21]
          +0.018*[#  22]
    |psi|^2 = 0.980
==== e(  20) =     7.12631 eV ==== 
     psi = 0.189*[#   1]+0.189*[#   2]+0.117*[#  19]+0.117*[#  20]+0.046*[#   3]
          +0.046*[#   4]+0.041*[#   5]+0.041*[#   6]+0.041*[#   7]+0.041*[#   8]
          +0.019*[#  23]+0.019*[#  24]+0.019*[#  25]+0.019*[#  26]+0.018*[#  21]
          +0.018*[#  22]
    |psi|^2 = 0.980
==== e(  21) =    10.77361 eV ==== 
     psi = 0.210*[#   3]+0.210*[#   4]+0.069*[#  21]+0.069*[#  22]+0.054*[#   5]
          +0.054*[#   6]+0.054*[#   7]+0.054*[#   8]+0.018*[#  23]+0.018*[#  24]
          +0.018*[#  25]+0.018*[#  26]
    |psi|^2 = 0.845
==== e(  22) =    10.77361 eV ==== 
     psi = 0.210*[#   3]+0.210*[#   4]+0.069*[#  21]+0.069*[#  22]+0.054*[#   5]
          +0.054*[#   6]+0.054*[#   7]+0.054*[#   8]+0.018*[#  23]+0.018*[#  24]
          +0.018*[#  25]+0.018*[#  26]
    |psi|^2 = 0.845
==== e(  23) =    10.87410 eV ==== 
     psi = 0.157*[#   5]+0.157*[#   6]+0.157*[#   7]+0.157*[#   8]+0.052*[#  23]
          +0.052*[#  24]+0.052*[#  25]+0.052*[#  26]
    |psi|^2 = 0.838
==== e(  24) =    10.87523 eV ==== 
     psi = 0.157*[#   5]+0.157*[#   6]+0.157*[#   7]+0.157*[#   8]+0.052*[#  23]
          +0.052*[#  24]+0.052*[#  25]+0.052*[#  26]
    |psi|^2 = 0.838
==== e(  25) =    13.83298 eV ==== 
     psi = 0.036*[#   1]+0.036*[#   2]+0.034*[#   5]+0.034*[#   6]+0.034*[#   7]
          +0.034*[#   8]+0.031*[#  23]+0.031*[#  24]+0.031*[#  25]+0.031*[#  26]
          +0.031*[#   3]+0.031*[#   4]+0.029*[#  21]+0.029*[#  22]+0.020*[#  19]
          +0.020*[#  20]
    |psi|^2 = 0.491
==== e(  26) =    13.83298 eV ==== 
     psi = 0.036*[#   1]+0.036*[#   2]+0.034*[#   5]+0.034*[#   6]+0.034*[#   7]
          +0.034*[#   8]+0.031*[#  23]+0.031*[#  24]+0.031*[#  25]+0.031*[#  26]
          +0.031*[#   3]+0.031*[#   4]+0.029*[#  21]+0.029*[#  22]+0.020*[#  19]
          +0.020*[#  20]
    |psi|^2 = 0.491

 k =  -0.3750000000  0.3750000000  0.3750000000
==== e(   1) =    -8.80209 eV ==== 
     psi = 0.243*[#   9]+0.243*[#  10]+0.243*[#  11]+0.243*[#  12]+0.004*[#  19]
          +0.004*[#  20]+0.003*[#  14]+0.003*[#  17]+0.003*[#  13]+0.003*[#  15]
          +0.003*[#  16]+0.003*[#  18]
    |psi|^2 = 1.000
==== e(   2) =    -8.80209 eV ==== 
     psi = 0.243*[#   9]+0.243*[#  10]+0.243*[#  11]+0.243*[#  12]+0.004*[#  19]
          +0.004*[#  20]+0.003*[#  14]+0.003*[#  17]+0.003*[#  13]+0.003*[#  15]
          +0.003*[#  16]+0.003*[#  18]
    |psi|^2 = 1.000
==== e(   3) =    -8.78621 eV ==== 
     psi = 0.249*[#   9]+0.249*[#  10]+0.249*[#  11]+0.249*[#  12]
    |psi|^2 = 1.000
==== e(   4) =    -8.78266 eV ==== 
     psi = 0.249*[#   9]+0.249*[#  10]+0.249*[#  11]+0.249*[#  12]
    |psi|^2 = 1.000
==== e(   5) =    -8.36496 eV ==== 
     psi = 0.365*[#  14]+0.365*[#  17]+0.098*[#  13]+0.098*[#  18]+0.024*[#  15]
          +0.024*[#  16]+0.004*[#  19]+0.004*[#  20]+0.003*[#   9]+0.003*[#  10]
          +0.003*[#  11]+0.003*[#  12]
    |psi|^2 = 1.000
==== e(   6) =    -8.36496 eV ==== 
     psi = 0.375*[#  14]+0.375*[#  17]+0.088*[#  13]+0.088*[#  18]+0.024*[#  15]
          +0.024*[#  16]+0.004*[#  19]+0.004*[#  20]+0.003*[#   9]+0.003*[#  10]
          +0.003*[#  11]+0.003*[#  12]
    |psi|^2 = 1.000
==== e(   7) =    -8.32918 eV ==== 
     psi = 0.221*[#  15]+0.221*[#  16]+0.199*[#  13]+0.199*[#  18]+0.075*[#  14]
          +0.075*[#  17]+0.001*[#   9]+0.001*[#  10]+0.001*[#  11]+0.001*[#  12]
          
    |psi|^2 = 1.000
==== e(   8) =    -8.32918 eV ==== 
     psi = 0.221*[#  15]+0.221*[#  16]+0.188*[#  13]+0.188*[#  18]+0.086*[#  14]
          +0.086*[#  17]+0.001*[#   9]+0.001*[#  10]+0.001*[#  11]+0.001*[#  12]
          
    |psi|^2 = 1.000
==== e(   9) =    -8.30082 eV ==== 
     psi = 0.249*[#  15]+0.249*[#  16]+0.208*[#  13]+0.208*[#  18]+0.042*[#  14]
          +0.042*[#  17]
    |psi|^2 = 1.000
==== e(  10) =    -8.29683 eV ==== 
     psi = 0.249*[#  15]+0.249*[#  16]+0.208*[#  13]+0.208*[#  18]+0.042*[#  14]
          +0.042*[#  17]
    |psi|^2 = 1.000
==== e(  11) =    -4.91862 eV ==== 
     psi = 0.290*[#  19]+0.290*[#  20]+0.087*[#   1]+0.087*[#   2]+0.032*[#   5]
          +0.032*[#   6]+0.032*[#   7]+0.032*[#   8]+0.031*[#   3]+0.031*[#   4]
          +0.005*[#  23]+0.005*[#  24]+0.005*[#  25]+0.005*[#  26]+0.005*[#  21]
          +0.005*[#  22]+0.004*[#  14]+0.004*[#  17]+0.002*[#  13]+0.002*[#  18]
          +0.002*[#   9]+0.002*[#  10]+0.002*[#  11]+0.002*[#  12]+0.002*[#  15]
          +0.002*[#  16]
    |psi|^2 = 0.997
==== e(  12) =    -4.91862 eV ==== 
     psi = 0.290*[#  19]+0.290*[#  20]+0.087*[#   1]+0.087*[#   2]+0.032*[#   5]
          +0.032*[#   6]+0.032*[#   7]+0.032*[#   8]+0.031*[#   3]+0.031*[#   4]
          +0.005*[#  23]+0.005*[#  24]+0.005*[#  25]+0.005*[#  26]+0.005*[#  21]
          +0.005*[#  22]+0.004*[#  14]+0.004*[#  17]+0.002*[#  13]+0.002*[#  18]
          +0.002*[#   9]+0.002*[#  10]+0.002*[#  11]+0.002*[#  12]+0.002*[#  15]
          +0.002*[#  16]
    |psi|^2 = 0.997
==== e(  13) =     0.49931 eV ==== 
     psi = 0.148*[#   1]+0.148*[#   2]+0.080*[#  21]+0.080*[#  22]+0.075*[#  23]
          +0.075*[#  24]+0.075*[#  25]+0.075*[#  26]+0.041*[#  19]+0.041*[#  20]
          +0.025*[#   5]+0.025*[#   6]+0.025*[#   7]+0.025*[#   8]+0.025*[#   3]
          +0.025*[#   4]
    |psi|^2 = 0.991
==== e(  14) =     0.49931 eV ==== 
     psi = 0.148*[#   1]+0.148*[#   2]+0.080*[#  21]+0.080*[#  22]+0.075*[#  23]
          +0.075*[#  24]+0.075*[#  25]+0.075*[#  26]+0.041*[#  19]+0.041*[#  20]
          +0.025*[#   5]+0.025*[#   6]+0.025*[#   7]+0.025*[#   8]+0.025*[#   3]
          +0.025*[#   4]
    |psi|^2 = 0.991
==== e(  15) =     5.13566 eV ==== 
     psi = 0.252*[#  21]+0.252*[#  22]+0.084*[#   3]+0.084*[#   4]+0.061*[#  23]
          +0.061*[#  24]+0.061*[#  25]+0.061*[#  26]+0.020*[#   5]+0.020*[#   6]
          +0.020*[#   7]+0.020*[#   8]
    |psi|^2 = 0.997
==== e(  16) =     5.13566 eV ==== 
     psi = 0.252*[#  21]+0.252*[#  22]+0.084*[#   3]+0.084*[#   4]+0.061*[#  23]
          +0.061*[#  24]+0.061*[#  25]+0.061*[#  26]+0.020*[#   5]+0.020*[#   6]
          +0.020*[#   7]+0.020*[#   8]
    |psi|^2 = 0.997
==== e(  17) =     5.33745 eV ==== 
     psi = 0.186*[#  23]+0.186*[#  24]+0.186*[#  25]+0.186*[#  26]+0.062*[#   5]
          +0.062*[#   6]+0.062*[#   7]+0.062*[#   8]
    |psi|^2 = 0.997
==== e(  18) =     5.33958 eV ==== 
     psi = 0.186*[#  23]+0.186*[#  24]+0.186*[#  25]+0.186*[#  26]+0.062*[#   5]
          +0.062*[#   6]+0.062*[#   7]+0.062*[#   8]
    |psi|^2 = 0.997
==== e(  19) =     7.16896 eV ==== 
     psi = 0.189*[#   1]+0.189*[#   2]+0.115*[#  19]+0.115*[#  20]+0.046*[#   3]
          +0.046*[#   4]+0.041*[#   5]+0.041*[#   6]+0.041*[#   7]+0.041*[#   8]
          +0.020*[#  23]+0.020*[#  24]+0.020*[#  25]+0.020*[#  26]+0.018*[#  21]
          +0.018*[#  22]
    |psi|^2 = 0.980
==== e(  20) =     7.16896 eV ==== 
     psi = 0.189*[#   1]+0.189*[#   2]+0.115*[#  19]+0.115*[#  20]+0.046*[#   3]
          +0.046*[#   4]+0.041*[#   5]+0.041*[#   6]+0.041*[#   7]+0.041*[#   8]
          +0.020*[#  23]+0.020*[#  24]+0.020*[#  25]+0.020*[#  26]+0.018*[#  21]
          +0.018*[#  22]
    |psi|^2 = 0.980
==== e(  21) =    10.78128 eV ==== 
     psi = 0.213*[#   3]+0.213*[#   4]+0.069*[#  21]+0.069*[#  22]+0.055*[#   5]
          +0.055*[#   6]+0.055*[#   7]+0.055*[#   8]+0.018*[#  23]+0.018*[#  24]
          +0.018*[#  25]+0.018*[#  26]
    |psi|^2 = 0.855
==== e(  22) =    10.78128 eV ==== 
     psi = 0.213*[#   3]+0.213*[#   4]+0.069*[#  21]+0.069*[#  22]+0.055*[#   5]
          +0.055*[#   6]+0.055*[#   7]+0.055*[#   8]+0.018*[#  23]+0.018*[#  24]
          +0.018*[#  25]+0.018*[#  26]
    |psi|^2 = 0.855
==== e(  23) =    10.88544 eV ==== 
     psi = 0.160*[#   5]+0.160*[#   6]+0.160*[#   7]+0.160*[#   8]+0.052*[#  23]
          +0.052*[#  24]+0.052*[#  25]+0.052*[#  26]
    |psi|^2 = 0.848
==== e(  24) =    10.88690 eV ==== 
     psi = 0.159*[#   5]+0.159*[#   6]+0.159*[#   7]+0.159*[#   8]+0.052*[#  23]
          +0.052*[#  24]+0.052*[#  25]+0.052*[#  26]
    |psi|^2 = 0.848
==== e(  25) =    13.67982 eV ==== 
     psi = 0.046*[#   1]+0.046*[#   2]+0.045*[#   5]+0.045*[#   6]+0.045*[#   7]
          +0.045*[#   8]+0.041*[#   3]+0.041*[#   4]+0.041*[#  23]+0.041*[#  24]
          +0.041*[#  25]+0.041*[#  26]+0.038*[#  21]+0.038*[#  22]+0.027*[#  19]
          +0.027*[#  20]
    |psi|^2 = 0.649
==== e(  26) =    13.67982 eV ==== 
     psi = 0.046*[#   1]+0.046*[#   2]+0.045*[#   5]+0.045*[#   6]+0.045*[#   7]
          +0.045*[#   8]+0.041*[#   3]+0.041*[#   4]+0.041*[#  23]+0.041*[#  24]
          +0.041*[#  25]+0.041*[#  26]+0.038*[#  21]+0.038*[#  22]+0.027*[#  19]
          +0.027*[#  20]
    |psi|^2 = 0.649

 k =  -0.3500000000  0.3500000000  0.3500000000
==== e(   1) =    -8.80102 eV ==== 
     psi = 0.244*[#   9]+0.244*[#  10]+0.244*[#  11]+0.244*[#  12]+0.004*[#  19]
          +0.004*[#  20]+0.002*[#  13]+0.002*[#  14]+0.002*[#  15]+0.002*[#  16]
          +0.002*[#  17]+0.002*[#  18]
    |psi|^2 = 1.000
==== e(   2) =    -8.80102 eV ==== 
     psi = 0.244*[#   9]+0.244*[#  10]+0.244*[#  11]+0.244*[#  12]+0.004*[#  19]
          +0.004*[#  20]+0.002*[#  13]+0.002*[#  14]+0.002*[#  15]+0.002*[#  16]
          +0.002*[#  17]+0.002*[#  18]
    |psi|^2 = 1.000
==== e(   3) =    -8.78668 eV ==== 
     psi = 0.249*[#   9]+0.249*[#  10]+0.249*[#  11]+0.249*[#  12]
    |psi|^2 = 1.000
==== e(   4) =    -8.78262 eV ==== 
     psi = 0.249*[#   9]+0.249*[#  10]+0.249*[#  11]+0.249*[#  12]
    |psi|^2 = 1.000
==== e(   5) =    -8.36459 eV ==== 
     psi = 0.370*[#  14]+0.370*[#  17]+0.097*[#  13]+0.097*[#  18]+0.021*[#  15]
          +0.021*[#  16]+0.004*[#  19]+0.004*[#  20]+0.003*[#   9]+0.003*[#  10]
          +0.003*[#  11]+0.003*[#  12]
    |psi|^2 = 1.000
==== e(   6) =    -8.36459 eV ==== 
     psi = 0.381*[#  14]+0.381*[#  17]+0.086*[#  13]+0.086*[#  18]+0.021*[#  15]
          +0.021*[#  16]+0.004*[#  19]+0.004*[#  20]+0.003*[#   9]+0.003*[#  10]
          +0.003*[#  11]+0.003*[#  12]
    |psi|^2 = 1.000
==== e(   7) =    -8.32832 eV ==== 
     psi = 0.224*[#  15]+0.224*[#  16]+0.201*[#  13]+0.201*[#  18]+0.070*[#  14]
          +0.070*[#  17]+0.002*[#   9]+0.002*[#  10]+0.002*[#  11]+0.002*[#  12]
          
    |psi|^2 = 1.000
==== e(   8) =    -8.32832 eV ==== 
     psi = 0.224*[#  15]+0.224*[#  16]+0.189*[#  13]+0.189*[#  18]+0.082*[#  14]
          +0.082*[#  17]+0.002*[#   9]+0.002*[#  10]+0.002*[#  11]+0.002*[#  12]
          
    |psi|^2 = 1.000
==== e(   9) =    -8.30211 eV ==== 
     psi = 0.249*[#  15]+0.249*[#  16]+0.207*[#  13]+0.207*[#  18]+0.041*[#  14]
          +0.041*[#  17]
    |psi|^2 = 1.000
==== e(  10) =    -8.29755 eV ==== 
     psi = 0.249*[#  15]+0.249*[#  16]+0.208*[#  13]+0.208*[#  18]+0.042*[#  14]
          +0.042*[#  17]
    |psi|^2 = 1.000
==== e(  11) =    -5.04099 eV ==== 
     psi = 0.284*[#  19]+0.284*[#  20]+0.093*[#   1]+0.093*[#   2]+0.032*[#   5]
          +0.032*[#   6]+0.032*[#   7]+0.032*[#   8]+0.031*[#   3]+0.031*[#   4]
          +0.006*[#  23]+0.006*[#  24]+0.006*[#  25]+0.006*[#  26]+0.005*[#  21]
          +0.005*[#  22]+0.003*[#  14]+0.003*[#  17]+0.002*[#  13]+0.002*[#  18]
          +0.002*[#   9]+0.002*[#  10]+0.002*[#  11]+0.002*[#  12]+0.002*[#  15]
          +0.002*[#  16]
    |psi|^2 = 0.997
==== e(  12) =    -5.04099 eV ==== 
     psi = 0.284*[#  19]+0.284*[#  20]+0.093*[#   1]+0.093*[#   2]+0.032*[#   5]
          +0.032*[#   6]+0.032*[#   7]+0.032*[#   8]+0.031*[#   3]+0.031*[#   4]
          +0.006*[#  23]+0.006*[#  24]+0.006*[#  25]+0.006*[#  26]+0.005*[#  21]
          +0.005*[#  22]+0.003*[#  14]+0.003*[#  17]+0.002*[#  13]+0.002*[#  18]
          +0.002*[#   9]+0.002*[#  10]+0.002*[#  11]+0.002*[#  12]+0.002*[#  15]
          +0.002*[#  16]
    |psi|^2 = 0.997
==== e(  13) =     0.77285 eV ==== 
     psi = 0.145*[#   1]+0.145*[#   2]+0.080*[#  21]+0.080*[#  22]+0.075*[#  23]
          +0.075*[#  24]+0.075*[#  25]+0.075*[#  26]+0.049*[#  19]+0.049*[#  20]
          +0.024*[#   3]+0.024*[#   4]+0.024*[#   5]+0.024*[#   6]+0.024*[#   7]
          +0.024*[#   8]
    |psi|^2 = 0.992
==== e(  14) =     0.77285 eV ==== 
     psi = 0.145*[#   1]+0.145*[#   2]+0.080*[#  21]+0.080*[#  22]+0.075*[#  23]
          +0.075*[#  24]+0.075*[#  25]+0.075*[#  26]+0.049*[#  19]+0.049*[#  20]
          +0.024*[#   3]+0.024*[#   4]+0.024*[#   5]+0.024*[#   6]+0.024*[#   7]
          +0.024*[#   8]
    |psi|^2 = 0.992
==== e(  15) =     5.18523 eV ==== 
     psi = 0.253*[#  21]+0.253*[#  22]+0.083*[#   3]+0.083*[#   4]+0.061*[#  23]
          +0.061*[#  24]+0.061*[#  25]+0.061*[#  26]+0.019*[#   5]+0.019*[#   6]
          +0.019*[#   7]+0.019*[#   8]
    |psi|^2 = 0.997
==== e(  16) =     5.18523 eV ==== 
     psi = 0.253*[#  21]+0.253*[#  22]+0.083*[#   3]+0.083*[#   4]+0.061*[#  23]
          +0.061*[#  24]+0.061*[#  25]+0.061*[#  26]+0.019*[#   5]+0.019*[#   6]
          +0.019*[#   7]+0.019*[#   8]
    |psi|^2 = 0.997
==== e(  17) =     5.38730 eV ==== 
     psi = 0.187*[#  23]+0.187*[#  24]+0.187*[#  25]+0.187*[#  26]+0.061*[#   5]
          +0.061*[#   6]+0.061*[#   7]+0.061*[#   8]
    |psi|^2 = 0.997
==== e(  18) =     5.38977 eV ==== 
     psi = 0.187*[#  23]+0.187*[#  24]+0.187*[#  25]+0.187*[#  26]+0.061*[#   5]
          +0.061*[#   6]+0.061*[#   7]+0.061*[#   8]
    |psi|^2 = 0.997
==== e(  19) =     7.21979 eV ==== 
     psi = 0.189*[#   1]+0.189*[#   2]+0.112*[#  19]+0.112*[#  20]+0.047*[#   3]
          +0.047*[#   4]+0.041*[#   5]+0.041*[#   6]+0.041*[#   7]+0.041*[#   8]
          +0.020*[#  23]+0.020*[#  24]+0.020*[#  25]+0.020*[#  26]+0.019*[#  21]
          +0.019*[#  22]
    |psi|^2 = 0.981
==== e(  20) =     7.21979 eV ==== 
     psi = 0.189*[#   1]+0.189*[#   2]+0.112*[#  19]+0.112*[#  20]+0.047*[#   3]
          +0.047*[#   4]+0.041*[#   5]+0.041*[#   6]+0.041*[#   7]+0.041*[#   8]
          +0.020*[#  23]+0.020*[#  24]+0.020*[#  25]+0.020*[#  26]+0.019*[#  21]
          +0.019*[#  22]
    |psi|^2 = 0.981
==== e(  21) =    10.78361 eV ==== 
     psi = 0.216*[#   3]+0.216*[#   4]+0.069*[#  21]+0.069*[#  22]+0.056*[#   5]
          +0.056*[#   6]+0.056*[#   7]+0.056*[#   8]+0.018*[#  23]+0.018*[#  24]
          +0.018*[#  25]+0.018*[#  26]
    |psi|^2 = 0.867
==== e(  22) =    10.78361 eV ==== 
     psi = 0.216*[#   3]+0.216*[#   4]+0.069*[#  21]+0.069*[#  22]+0.056*[#   5]
          +0.056*[#   6]+0.056*[#   7]+0.056*[#   8]+0.018*[#  23]+0.018*[#  24]
          +0.018*[#  25]+0.018*[#  26]
    |psi|^2 = 0.867
==== e(  23) =    10.89214 eV ==== 
     psi = 0.163*[#   5]+0.163*[#   6]+0.163*[#   7]+0.163*[#   8]+0.052*[#  23]
          +0.052*[#  24]+0.052*[#  25]+0.052*[#  26]
    |psi|^2 = 0.861
==== e(  24) =    10.89393 eV ==== 
     psi = 0.163*[#   5]+0.163*[#   6]+0.163*[#   7]+0.163*[#   8]+0.053*[#  23]
          +0.053*[#  24]+0.053*[#  25]+0.053*[#  26]
    |psi|^2 = 0.861
==== e(  25) =    13.42264 eV ==== 
     psi = 0.054*[#   5]+0.054*[#   6]+0.054*[#   7]+0.054*[#   8]+0.053*[#   1]
          +0.053*[#   2]+0.050*[#   3]+0.050*[#   4]+0.049*[#  23]+0.049*[#  24]
          +0.049*[#  25]+0.049*[#  26]+0.045*[#  21]+0.045*[#  22]+0.034*[#  19]
          +0.034*[#  20]
    |psi|^2 = 0.779
==== e(  26) =    13.42264 eV ==== 
     psi = 0.054*[#   5]+0.054*[#   6]+0.054*[#   7]+0.054*[#   8]+0.053*[#   1]
          +0.053*[#   2]+0.050*[#   3]+0.050*[#   4]+0.049*[#  23]+0.049*[#  24]
          +0.049*[#  25]+0.049*[#  26]+0.045*[#  21]+0.045*[#  22]+0.034*[#  19]
          +0.034*[#  20]
    |psi|^2 = 0.779

 k =  -0.3250000000  0.3250000000  0.3250000000
==== e(   1) =    -8.79984 eV ==== 
     psi = 0.244*[#   9]+0.244*[#  10]+0.244*[#  11]+0.244*[#  12]+0.004*[#  19]
          +0.004*[#  20]+0.002*[#  13]+0.002*[#  15]+0.002*[#  16]+0.002*[#  18]
          +0.002*[#  14]+0.002*[#  17]
    |psi|^2 = 1.000
==== e(   2) =    -8.79984 eV ==== 
     psi = 0.244*[#   9]+0.244*[#  10]+0.244*[#  11]+0.244*[#  12]+0.004*[#  19]
          +0.004*[#  20]+0.002*[#  13]+0.002*[#  15]+0.002*[#  16]+0.002*[#  14]
          +0.002*[#  17]+0.002*[#  18]
    |psi|^2 = 1.000
==== e(   3) =    -8.78714 eV ==== 
     psi = 0.249*[#   9]+0.249*[#  10]+0.249*[#  11]+0.249*[#  12]
    |psi|^2 = 1.000
==== e(   4) =    -8.78266 eV ==== 
     psi = 0.249*[#   9]+0.249*[#  10]+0.249*[#  11]+0.249*[#  12]
    |psi|^2 = 1.000
==== e(   5) =    -8.36416 eV ==== 
     psi = 0.375*[#  14]+0.375*[#  17]+0.097*[#  13]+0.097*[#  18]+0.018*[#  15]
          +0.018*[#  16]+0.004*[#  19]+0.004*[#  20]+0.002*[#   9]+0.002*[#  10]
          +0.002*[#  11]+0.002*[#  12]
    |psi|^2 = 1.000
==== e(   6) =    -8.36416 eV ==== 
     psi = 0.387*[#  14]+0.387*[#  17]+0.085*[#  13]+0.085*[#  18]+0.018*[#  15]
          +0.018*[#  16]+0.004*[#  19]+0.004*[#  20]+0.002*[#   9]+0.002*[#  10]
          +0.002*[#  11]+0.002*[#  12]
    |psi|^2 = 1.000
==== e(   7) =    -8.32731 eV ==== 
     psi = 0.228*[#  15]+0.228*[#  16]+0.203*[#  13]+0.203*[#  18]+0.064*[#  14]
          +0.064*[#  17]+0.002*[#   9]+0.002*[#  10]+0.002*[#  11]+0.002*[#  12]
          
    |psi|^2 = 1.000
==== e(   8) =    -8.32731 eV ==== 
     psi = 0.228*[#  15]+0.228*[#  16]+0.190*[#  13]+0.190*[#  18]+0.077*[#  14]
          +0.077*[#  17]+0.002*[#   9]+0.002*[#  10]+0.002*[#  11]+0.002*[#  12]
          
    |psi|^2 = 1.000
==== e(   9) =    -8.30347 eV ==== 
     psi = 0.249*[#  15]+0.249*[#  16]+0.207*[#  13]+0.207*[#  18]+0.041*[#  14]
          +0.041*[#  17]
    |psi|^2 = 1.000
==== e(  10) =    -8.29844 eV ==== 
     psi = 0.249*[#  15]+0.249*[#  16]+0.208*[#  13]+0.208*[#  18]+0.042*[#  14]
          +0.042*[#  17]
    |psi|^2 = 1.000
==== e(  11) =    -5.16834 eV ==== 
     psi = 0.279*[#  19]+0.279*[#  20]+0.099*[#   1]+0.099*[#   2]+0.032*[#   5]
          +0.032*[#   6]+0.032*[#   7]+0.032*[#   8]+0.031*[#   3]+0.031*[#   4]
          +0.006*[#  23]+0.006*[#  24]+0.006*[#  25]+0.006*[#  26]+0.005*[#  21]
          +0.005*[#  22]+0.003*[#  14]+0.003*[#  17]+0.002*[#  13]+0.002*[#  18]
          +0.002*[#   9]+0.002*[#  10]+0.002*[#  11]+0.002*[#  12]+0.001*[#  15]
          +0.001*[#  16]
    |psi|^2 = 0.997
==== e(  12) =    -5.16834 eV ==== 
     psi = 0.279*[#  19]+0.279*[#  20]+0.099*[#   1]+0.099*[#   2]+0.032*[#   5]
          +0.032*[#   6]+0.032*[#   7]+0.032*[#   8]+0.031*[#   3]+0.031*[#   4]
          +0.006*[#  23]+0.006*[#  24]+0.006*[#  25]+0.006*[#  26]+0.005*[#  21]
          +0.005*[#  22]+0.003*[#  14]+0.003*[#  17]+0.002*[#  13]+0.002*[#  18]
          +0.002*[#   9]+0.002*[#  10]+0.002*[#  11]+0.002*[#  12]+0.001*[#  15]
          +0.001*[#  16]
    |psi|^2 = 0.997
==== e(  13) =     1.07777 eV ==== 
     psi = 0.141*[#   1]+0.141*[#   2]+0.081*[#  21]+0.081*[#  22]+0.075*[#  23]
          +0.075*[#  24]+0.075*[#  25]+0.075*[#  26]+0.056*[#  19]+0.056*[#  20]
          +0.022*[#   3]+0.022*[#   4]+0.022*[#   5]+0.022*[#   6]+0.022*[#   7]
          +0.022*[#   8]
    |psi|^2 = 0.993
==== e(  14) =     1.07777 eV ==== 
     psi = 0.141*[#   1]+0.141*[#   2]+0.081*[#  21]+0.081*[#  22]+0.075*[#  23]
          +0.075*[#  24]+0.075*[#  25]+0.075*[#  26]+0.056*[#  19]+0.056*[#  20]
          +0.022*[#   3]+0.022*[#   4]+0.022*[#   5]+0.022*[#   6]+0.022*[#   7]
          +0.022*[#   8]
    |psi|^2 = 0.993
==== e(  15) =     5.24276 eV ==== 
     psi = 0.254*[#  21]+0.254*[#  22]+0.081*[#   3]+0.081*[#   4]+0.062*[#  23]
          +0.062*[#  24]+0.062*[#  25]+0.062*[#  26]+0.019*[#   5]+0.019*[#   6]
          +0.019*[#   7]+0.019*[#   8]
    |psi|^2 = 0.997
==== e(  16) =     5.24276 eV ==== 
     psi = 0.254*[#  21]+0.254*[#  22]+0.081*[#   3]+0.081*[#   4]+0.062*[#  23]
          +0.062*[#  24]+0.062*[#  25]+0.062*[#  26]+0.019*[#   5]+0.019*[#   6]
          +0.019*[#   7]+0.019*[#   8]
    |psi|^2 = 0.997
==== e(  17) =     5.44524 eV ==== 
     psi = 0.188*[#  23]+0.188*[#  24]+0.188*[#  25]+0.188*[#  26]+0.060*[#   5]
          +0.060*[#   6]+0.060*[#   7]+0.060*[#   8]
    |psi|^2 = 0.997
==== e(  18) =     5.44799 eV ==== 
     psi = 0.188*[#  23]+0.188*[#  24]+0.188*[#  25]+0.188*[#  26]+0.060*[#   5]
          +0.060*[#   6]+0.060*[#   7]+0.060*[#   8]
    |psi|^2 = 0.997
==== e(  19) =     7.27780 eV ==== 
     psi = 0.189*[#   1]+0.189*[#   2]+0.109*[#  19]+0.109*[#  20]+0.048*[#   3]
          +0.048*[#   4]+0.041*[#   5]+0.041*[#   6]+0.041*[#   7]+0.041*[#   8]
          +0.021*[#  23]+0.021*[#  24]+0.021*[#  25]+0.021*[#  26]+0.020*[#  21]
          +0.020*[#  22]
    |psi|^2 = 0.982
==== e(  20) =     7.27780 eV ==== 
     psi = 0.189*[#   1]+0.189*[#   2]+0.109*[#  19]+0.109*[#  20]+0.048*[#   3]
          +0.048*[#   4]+0.041*[#   5]+0.041*[#   6]+0.041*[#   7]+0.041*[#   8]
          +0.021*[#  23]+0.021*[#  24]+0.021*[#  25]+0.021*[#  26]+0.020*[#  21]
          +0.020*[#  22]
    |psi|^2 = 0.982
==== e(  21) =    10.77663 eV ==== 
     psi = 0.221*[#   3]+0.221*[#   4]+0.069*[#  21]+0.069*[#  22]+0.057*[#   5]
          +0.057*[#   6]+0.057*[#   7]+0.057*[#   8]+0.018*[#  23]+0.018*[#  24]
          +0.018*[#  25]+0.018*[#  26]
    |psi|^2 = 0.881
==== e(  22) =    10.77663 eV ==== 
     psi = 0.221*[#   3]+0.221*[#   4]+0.069*[#  21]+0.069*[#  22]+0.057*[#   5]
          +0.057*[#   6]+0.057*[#   7]+0.057*[#   8]+0.018*[#  23]+0.018*[#  24]
          +0.018*[#  25]+0.018*[#  26]
    |psi|^2 = 0.881
==== e(  23) =    10.89001 eV ==== 
     psi = 0.166*[#   5]+0.166*[#   6]+0.166*[#   7]+0.166*[#   8]+0.052*[#  23]
          +0.052*[#  24]+0.052*[#  25]+0.052*[#  26]
    |psi|^2 = 0.876
==== e(  24) =    10.89211 eV ==== 
     psi = 0.166*[#   5]+0.166*[#   6]+0.166*[#   7]+0.166*[#   8]+0.053*[#  23]
          +0.053*[#  24]+0.053*[#  25]+0.053*[#  26]
    |psi|^2 = 0.875
==== e(  25) =    13.08613 eV ==== 
     psi = 0.060*[#   5]+0.060*[#   6]+0.060*[#   7]+0.060*[#   8]+0.056*[#   1]
          +0.056*[#   2]+0.056*[#   3]+0.056*[#   4]+0.053*[#  23]+0.053*[#  24]
          +0.053*[#  25]+0.053*[#  26]+0.049*[#  21]+0.049*[#  22]+0.039*[#  19]
          +0.039*[#  20]
    |psi|^2 = 0.853
==== e(  26) =    13.08613 eV ==== 
     psi = 0.060*[#   5]+0.060*[#   6]+0.060*[#   7]+0.060*[#   8]+0.056*[#   1]
          +0.056*[#   2]+0.056*[#   3]+0.056*[#   4]+0.053*[#  23]+0.053*[#  24]
          +0.053*[#  25]+0.053*[#  26]+0.049*[#  21]+0.049*[#  22]+0.039*[#  19]
          +0.039*[#  20]
    |psi|^2 = 0.853

 k =  -0.3000000000  0.3000000000  0.3000000000
==== e(   1) =    -8.79858 eV ==== 
     psi = 0.245*[#   9]+0.245*[#  10]+0.245*[#  11]+0.245*[#  12]+0.003*[#  19]
          +0.003*[#  20]+0.002*[#  13]+0.002*[#  15]+0.002*[#  16]+0.002*[#  18]
          +0.002*[#  14]+0.002*[#  17]
    |psi|^2 = 1.000
==== e(   2) =    -8.79858 eV ==== 
     psi = 0.245*[#   9]+0.245*[#  10]+0.245*[#  11]+0.245*[#  12]+0.003*[#  19]
          +0.003*[#  20]+0.002*[#  15]+0.002*[#  16]+0.002*[#  13]+0.002*[#  18]
          +0.002*[#  14]+0.002*[#  17]
    |psi|^2 = 1.000
==== e(   3) =    -8.78756 eV ==== 
     psi = 0.249*[#   9]+0.249*[#  10]+0.249*[#  11]+0.249*[#  12]
    |psi|^2 = 1.000
==== e(   4) =    -8.78277 eV ==== 
     psi = 0.249*[#   9]+0.249*[#  10]+0.249*[#  11]+0.249*[#  12]
    |psi|^2 = 1.000
==== e(   5) =    -8.36365 eV ==== 
     psi = 0.380*[#  14]+0.380*[#  17]+0.096*[#  13]+0.096*[#  18]+0.015*[#  15]
          +0.015*[#  16]+0.003*[#  19]+0.003*[#  20]+0.002*[#   9]+0.002*[#  10]
          +0.002*[#  11]+0.002*[#  12]
    |psi|^2 = 1.000
==== e(   6) =    -8.36365 eV ==== 
     psi = 0.393*[#  14]+0.393*[#  17]+0.083*[#  13]+0.083*[#  18]+0.015*[#  15]
          +0.015*[#  16]+0.003*[#  19]+0.003*[#  20]+0.002*[#   9]+0.002*[#  10]
          +0.002*[#  11]+0.002*[#  12]
    |psi|^2 = 1.000
==== e(   7) =    -8.32616 eV ==== 
     psi = 0.231*[#  15]+0.231*[#  16]+0.205*[#  13]+0.205*[#  18]+0.059*[#  14]
          +0.059*[#  17]+0.002*[#   9]+0.002*[#  10]+0.002*[#  11]+0.002*[#  12]
          
    |psi|^2 = 1.000
==== e(   8) =    -8.32616 eV ==== 
     psi = 0.231*[#  15]+0.231*[#  16]+0.191*[#  13]+0.191*[#  18]+0.072*[#  14]
          +0.072*[#  17]+0.002*[#   9]+0.002*[#  10]+0.002*[#  11]+0.002*[#  12]
          
    |psi|^2 = 1.000
==== e(   9) =    -8.30486 eV ==== 
     psi = 0.249*[#  15]+0.249*[#  16]+0.207*[#  13]+0.207*[#  18]+0.041*[#  14]
          +0.041*[#  17]
    |psi|^2 = 1.000
==== e(  10) =    -8.29948 eV ==== 
     psi = 0.249*[#  15]+0.249*[#  16]+0.208*[#  13]+0.208*[#  18]+0.042*[#  14]
          +0.042*[#  17]
    |psi|^2 = 1.000
==== e(  11) =    -5.29660 eV ==== 
     psi = 0.275*[#  19]+0.275*[#  20]+0.105*[#   1]+0.105*[#   2]+0.031*[#   5]
          +0.031*[#   6]+0.031*[#   7]+0.031*[#   8]+0.030*[#   3]+0.030*[#   4]
          +0.006*[#  23]+0.006*[#  24]+0.006*[#  25]+0.006*[#  26]+0.006*[#  21]
          +0.006*[#  22]+0.003*[#  14]+0.003*[#  17]+0.002*[#  13]+0.002*[#  18]
          +0.001*[#   9]+0.001*[#  10]+0.001*[#  11]+0.001*[#  12]+0.001*[#  15]
          +0.001*[#  16]
    |psi|^2 = 0.997
==== e(  12) =    -5.29660 eV ==== 
     psi = 0.275*[#  19]+0.275*[#  20]+0.105*[#   1]+0.105*[#   2]+0.031*[#   5]
          +0.031*[#   6]+0.031*[#   7]+0.031*[#   8]+0.030*[#   3]+0.030*[#   4]
          +0.006*[#  23]+0.006*[#  24]+0.006*[#  25]+0.006*[#  26]+0.006*[#  21]
          +0.006*[#  22]+0.003*[#  14]+0.003*[#  17]+0.002*[#  13]+0.002*[#  18]
          +0.001*[#   9]+0.001*[#  10]+0.001*[#  11]+0.001*[#  12]+0.001*[#  15]
          +0.001*[#  16]
    |psi|^2 = 0.997
==== e(  13) =     1.40939 eV ==== 
     psi = 0.138*[#   1]+0.138*[#   2]+0.082*[#  21]+0.082*[#  22]+0.075*[#  23]
          +0.075*[#  24]+0.075*[#  25]+0.075*[#  26]+0.062*[#  19]+0.062*[#  20]
          +0.021*[#   3]+0.021*[#   4]+0.021*[#   5]+0.021*[#   6]+0.021*[#   7]
          +0.021*[#   8]
    |psi|^2 = 0.993
==== e(  14) =     1.40939 eV ==== 
     psi = 0.138*[#   1]+0.138*[#   2]+0.082*[#  21]+0.082*[#  22]+0.075*[#  23]
          +0.075*[#  24]+0.075*[#  25]+0.075*[#  26]+0.062*[#  19]+0.062*[#  20]
          +0.021*[#   3]+0.021*[#   4]+0.021*[#   5]+0.021*[#   6]+0.021*[#   7]
          +0.021*[#   8]
    |psi|^2 = 0.993
==== e(  15) =     5.30761 eV ==== 
     psi = 0.256*[#  21]+0.256*[#  22]+0.080*[#   3]+0.080*[#   4]+0.062*[#  23]
          +0.062*[#  24]+0.062*[#  25]+0.062*[#  26]+0.019*[#   5]+0.019*[#   6]
          +0.019*[#   7]+0.019*[#   8]
    |psi|^2 = 0.997
==== e(  16) =     5.30761 eV ==== 
     psi = 0.256*[#  21]+0.256*[#  22]+0.080*[#   3]+0.080*[#   4]+0.062*[#  23]
          +0.062*[#  24]+0.062*[#  25]+0.062*[#  26]+0.019*[#   5]+0.019*[#   6]
          +0.019*[#   7]+0.019*[#   8]
    |psi|^2 = 0.997
==== e(  17) =     5.51065 eV ==== 
     psi = 0.190*[#  23]+0.190*[#  24]+0.190*[#  25]+0.190*[#  26]+0.059*[#   5]
          +0.059*[#   6]+0.059*[#   7]+0.059*[#   8]
    |psi|^2 = 0.997
==== e(  18) =     5.51365 eV ==== 
     psi = 0.190*[#  23]+0.190*[#  24]+0.190*[#  25]+0.190*[#  26]+0.059*[#   5]
          +0.059*[#   6]+0.059*[#   7]+0.059*[#   8]
    |psi|^2 = 0.997
==== e(  19) =     7.34147 eV ==== 
     psi = 0.188*[#   1]+0.188*[#   2]+0.106*[#  19]+0.106*[#  20]+0.049*[#   3]
          +0.049*[#   4]+0.042*[#   5]+0.042*[#   6]+0.042*[#   7]+0.042*[#   8]
          +0.022*[#  23]+0.022*[#  24]+0.022*[#  25]+0.022*[#  26]+0.021*[#  21]
          +0.021*[#  22]
    |psi|^2 = 0.983
==== e(  20) =     7.34147 eV ==== 
     psi = 0.188*[#   1]+0.188*[#   2]+0.106*[#  19]+0.106*[#  20]+0.049*[#   3]
          +0.049*[#   4]+0.042*[#   5]+0.042*[#   6]+0.042*[#   7]+0.042*[#   8]
          +0.022*[#  23]+0.022*[#  24]+0.022*[#  25]+0.022*[#  26]+0.021*[#  21]
          +0.021*[#  22]
    |psi|^2 = 0.983
==== e(  21) =    10.75619 eV ==== 
     psi = 0.226*[#   3]+0.226*[#   4]+0.068*[#  21]+0.068*[#  22]+0.059*[#   5]
          +0.059*[#   6]+0.059*[#   7]+0.059*[#   8]+0.018*[#  23]+0.018*[#  24]
          +0.018*[#  25]+0.018*[#  26]
    |psi|^2 = 0.897
==== e(  22) =    10.75619 eV ==== 
     psi = 0.226*[#   3]+0.226*[#   4]+0.068*[#  21]+0.068*[#  22]+0.059*[#   5]
          +0.059*[#   6]+0.059*[#   7]+0.059*[#   8]+0.018*[#  23]+0.018*[#  24]
          +0.018*[#  25]+0.018*[#  26]
    |psi|^2 = 0.897
==== e(  23) =    10.87462 eV ==== 
     psi = 0.170*[#   5]+0.170*[#   6]+0.170*[#   7]+0.170*[#   8]+0.052*[#  23]
          +0.052*[#  24]+0.052*[#  25]+0.052*[#  26]
    |psi|^2 = 0.892
==== e(  24) =    10.87698 eV ==== 
     psi = 0.170*[#   5]+0.170*[#   6]+0.170*[#   7]+0.170*[#   8]+0.052*[#  23]
          +0.052*[#  24]+0.052*[#  25]+0.052*[#  26]
    |psi|^2 = 0.892
==== e(  25) =    12.70811 eV ==== 
     psi = 0.064*[#   5]+0.064*[#   6]+0.064*[#   7]+0.064*[#   8]+0.060*[#   3]
          +0.060*[#   4]+0.057*[#   1]+0.057*[#   2]+0.055*[#  23]+0.055*[#  24]
          +0.055*[#  25]+0.055*[#  26]+0.049*[#  21]+0.049*[#  22]+0.042*[#  19]
          +0.042*[#  20]
    |psi|^2 = 0.892
==== e(  26) =    12.70811 eV ==== 
     psi = 0.064*[#   5]+0.064*[#   6]+0.064*[#   7]+0.064*[#   8]+0.060*[#   3]
          +0.060*[#   4]+0.057*[#   1]+0.057*[#   2]+0.055*[#  23]+0.055*[#  24]
          +0.055*[#  25]+0.055*[#  26]+0.049*[#  21]+0.049*[#  22]+0.042*[#  19]
          +0.042*[#  20]
    |psi|^2 = 0.892

 k =  -0.2750000000  0.2750000000  0.2750000000
==== e(   1) =    -8.79728 eV ==== 
     psi = 0.245*[#   9]+0.245*[#  10]+0.245*[#  11]+0.245*[#  12]+0.003*[#  19]
          +0.003*[#  20]+0.002*[#  13]+0.002*[#  15]+0.002*[#  16]+0.002*[#  18]
          +0.001*[#  14]+0.001*[#  17]
    |psi|^2 = 1.000
==== e(   2) =    -8.79728 eV ==== 
     psi = 0.245*[#   9]+0.245*[#  10]+0.245*[#  11]+0.245*[#  12]+0.003*[#  19]
          +0.003*[#  20]+0.002*[#  15]+0.002*[#  16]+0.002*[#  13]+0.002*[#  18]
          +0.001*[#  14]+0.001*[#  17]
    |psi|^2 = 1.000
==== e(   3) =    -8.78795 eV ==== 
     psi = 0.249*[#   9]+0.249*[#  10]+0.249*[#  11]+0.249*[#  12]
    |psi|^2 = 1.000
==== e(   4) =    -8.78297 eV ==== 
     psi = 0.249*[#   9]+0.249*[#  10]+0.249*[#  11]+0.249*[#  12]
    |psi|^2 = 1.000
==== e(   5) =    -8.36309 eV ==== 
     psi = 0.385*[#  14]+0.385*[#  17]+0.094*[#  13]+0.094*[#  18]+0.012*[#  15]
          +0.012*[#  16]+0.003*[#  19]+0.003*[#  20]+0.001*[#   9]+0.001*[#  10]
          +0.001*[#  11]+0.001*[#  12]+0.001*[#  21]+0.001*[#  22]
    |psi|^2 = 1.000
==== e(   6) =    -8.36309 eV ==== 
     psi = 0.398*[#  14]+0.398*[#  17]+0.082*[#  13]+0.082*[#  18]+0.012*[#  15]
          +0.012*[#  16]+0.003*[#  19]+0.003*[#  20]+0.001*[#   9]+0.001*[#  10]
          +0.001*[#  11]+0.001*[#  12]+0.001*[#  21]+0.001*[#  22]
    |psi|^2 = 1.000
==== e(   7) =    -8.32489 eV ==== 
     psi = 0.234*[#  15]+0.234*[#  16]+0.207*[#  13]+0.207*[#  18]+0.054*[#  14]
          +0.054*[#  17]+0.002*[#   9]+0.002*[#  10]+0.002*[#  11]+0.002*[#  12]
          
    |psi|^2 = 1.000
==== e(   8) =    -8.32489 eV ==== 
     psi = 0.234*[#  15]+0.234*[#  16]+0.193*[#  13]+0.193*[#  18]+0.068*[#  14]
          +0.068*[#  17]+0.002*[#   9]+0.002*[#  10]+0.002*[#  11]+0.002*[#  12]
          
    |psi|^2 = 1.000
==== e(   9) =    -8.30623 eV ==== 
     psi = 0.249*[#  15]+0.249*[#  16]+0.207*[#  13]+0.207*[#  18]+0.041*[#  14]
          +0.041*[#  17]
    |psi|^2 = 1.000
==== e(  10) =    -8.30064 eV ==== 
     psi = 0.249*[#  15]+0.249*[#  16]+0.208*[#  13]+0.208*[#  18]+0.042*[#  14]
          +0.042*[#  17]
    |psi|^2 = 1.000
==== e(  11) =    -5.42248 eV ==== 
     psi = 0.273*[#  19]+0.273*[#  20]+0.112*[#   1]+0.112*[#   2]+0.030*[#   5]
          +0.030*[#   6]+0.030*[#   7]+0.030*[#   8]+0.029*[#   3]+0.029*[#   4]
          +0.006*[#  23]+0.006*[#  24]+0.006*[#  25]+0.006*[#  26]+0.005*[#  21]
          +0.005*[#  22]+0.003*[#  14]+0.003*[#  17]+0.001*[#  13]+0.001*[#  18]
          +0.001*[#   9]+0.001*[#  10]+0.001*[#  11]+0.001*[#  12]+0.001*[#  15]
          +0.001*[#  16]
    |psi|^2 = 0.997
==== e(  12) =    -5.42248 eV ==== 
     psi = 0.273*[#  19]+0.273*[#  20]+0.112*[#   1]+0.112*[#   2]+0.030*[#   5]
          +0.030*[#   6]+0.030*[#   7]+0.030*[#   8]+0.029*[#   3]+0.029*[#   4]
          +0.006*[#  23]+0.006*[#  24]+0.006*[#  25]+0.006*[#  26]+0.005*[#  21]
          +0.005*[#  22]+0.003*[#  14]+0.003*[#  17]+0.001*[#  13]+0.001*[#  18]
          +0.001*[#   9]+0.001*[#  10]+0.001*[#  11]+0.001*[#  12]+0.001*[#  15]
          +0.001*[#  16]
    |psi|^2 = 0.997
==== e(  13) =     1.76372 eV ==== 
     psi = 0.135*[#   1]+0.135*[#   2]+0.083*[#  21]+0.083*[#  22]+0.075*[#  23]
          +0.075*[#  24]+0.075*[#  25]+0.075*[#  26]+0.068*[#  19]+0.068*[#  20]
          +0.020*[#   3]+0.020*[#   4]+0.019*[#   5]+0.019*[#   6]+0.019*[#   7]
          +0.019*[#   8]
    |psi|^2 = 0.994
==== e(  14) =     1.76372 eV ==== 
     psi = 0.135*[#   1]+0.135*[#   2]+0.083*[#  21]+0.083*[#  22]+0.075*[#  23]
          +0.075*[#  24]+0.075*[#  25]+0.075*[#  26]+0.068*[#  19]+0.068*[#  20]
          +0.020*[#   3]+0.020*[#   4]+0.019*[#   5]+0.019*[#   6]+0.019*[#   7]
          +0.019*[#   8]
    |psi|^2 = 0.994
==== e(  15) =     5.37901 eV ==== 
     psi = 0.258*[#  21]+0.258*[#  22]+0.077*[#   3]+0.077*[#   4]+0.063*[#  23]
          +0.063*[#  24]+0.063*[#  25]+0.063*[#  26]+0.018*[#   5]+0.018*[#   6]
          +0.018*[#   7]+0.018*[#   8]
    |psi|^2 = 0.997
==== e(  16) =     5.37901 eV ==== 
     psi = 0.258*[#  21]+0.258*[#  22]+0.077*[#   3]+0.077*[#   4]+0.063*[#  23]
          +0.063*[#  24]+0.063*[#  25]+0.063*[#  26]+0.018*[#   5]+0.018*[#   6]
          +0.018*[#   7]+0.018*[#   8]
    |psi|^2 = 0.997
==== e(  17) =     5.58277 eV ==== 
     psi = 0.191*[#  23]+0.191*[#  24]+0.191*[#  25]+0.191*[#  26]+0.057*[#   5]
          +0.057*[#   6]+0.057*[#   7]+0.057*[#   8]
    |psi|^2 = 0.996
==== e(  18) =     5.58595 eV ==== 
     psi = 0.191*[#  23]+0.191*[#  24]+0.191*[#  25]+0.191*[#  26]+0.057*[#   5]
          +0.057*[#   6]+0.057*[#   7]+0.057*[#   8]
    |psi|^2 = 0.996
==== e(  19) =     7.40858 eV ==== 
     psi = 0.187*[#   1]+0.187*[#   2]+0.103*[#  19]+0.103*[#  20]+0.049*[#   3]
          +0.049*[#   4]+0.042*[#   5]+0.042*[#   6]+0.042*[#   7]+0.042*[#   8]
          +0.024*[#  23]+0.024*[#  24]+0.024*[#  25]+0.024*[#  26]+0.022*[#  21]
          +0.022*[#  22]
    |psi|^2 = 0.984
==== e(  20) =     7.40858 eV ==== 
     psi = 0.187*[#   1]+0.187*[#   2]+0.103*[#  19]+0.103*[#  20]+0.049*[#   3]
          +0.049*[#   4]+0.042*[#   5]+0.042*[#   6]+0.042*[#   7]+0.042*[#   8]
          +0.024*[#  23]+0.024*[#  24]+0.024*[#  25]+0.024*[#  26]+0.022*[#  21]
          +0.022*[#  22]
    |psi|^2 = 0.984
==== e(  21) =    10.71867 eV ==== 
     psi = 0.231*[#   3]+0.231*[#   4]+0.067*[#  21]+0.067*[#  22]+0.061*[#   5]
          +0.061*[#   6]+0.061*[#   7]+0.061*[#   8]+0.018*[#  23]+0.018*[#  24]
          +0.018*[#  25]+0.018*[#  26]
    |psi|^2 = 0.913
==== e(  22) =    10.71867 eV ==== 
     psi = 0.231*[#   3]+0.231*[#   4]+0.067*[#  21]+0.067*[#  22]+0.061*[#   5]
          +0.061*[#   6]+0.061*[#   7]+0.061*[#   8]+0.018*[#  23]+0.018*[#  24]
          +0.018*[#  25]+0.018*[#  26]
    |psi|^2 = 0.913
==== e(  23) =    10.84190 eV ==== 
     psi = 0.175*[#   5]+0.175*[#   6]+0.175*[#   7]+0.175*[#   8]+0.052*[#  23]
          +0.052*[#  24]+0.052*[#  25]+0.052*[#  26]
    |psi|^2 = 0.908
==== e(  24) =    10.84443 eV ==== 
     psi = 0.175*[#   5]+0.175*[#   6]+0.175*[#   7]+0.175*[#   8]+0.052*[#  23]
          +0.052*[#  24]+0.052*[#  25]+0.052*[#  26]
    |psi|^2 = 0.908
==== e(  25) =    12.31438 eV ==== 
     psi = 0.067*[#   5]+0.067*[#   6]+0.067*[#   7]+0.067*[#   8]+0.064*[#   3]
          +0.064*[#   4]+0.056*[#   1]+0.056*[#   2]+0.055*[#  23]+0.055*[#  24]
          +0.055*[#  25]+0.055*[#  26]+0.049*[#  21]+0.049*[#  22]+0.043*[#  19]
          +0.043*[#  20]
    |psi|^2 = 0.914
==== e(  26) =    12.31438 eV ==== 
     psi = 0.067*[#   5]+0.067*[#   6]+0.067*[#   7]+0.067*[#   8]+0.064*[#   3]
          +0.064*[#   4]+0.056*[#   1]+0.056*[#   2]+0.055*[#  23]+0.055*[#  24]
          +0.055*[#  25]+0.055*[#  26]+0.049*[#  21]+0.049*[#  22]+0.043*[#  19]
          +0.043*[#  20]
    |psi|^2 = 0.914

 k =  -0.2500000000  0.2500000000  0.2500000000
==== e(   1) =    -8.79598 eV ==== 
     psi = 0.246*[#   9]+0.246*[#  10]+0.246*[#  11]+0.246*[#  12]+0.003*[#  19]
          +0.003*[#  20]+0.002*[#  15]+0.002*[#  16]+0.002*[#  13]+0.002*[#  18]
          +0.001*[#  14]+0.001*[#  17]
    |psi|^2 = 1.000
==== e(   2) =    -8.79598 eV ==== 
     psi = 0.246*[#   9]+0.246*[#  10]+0.246*[#  11]+0.246*[#  12]+0.003*[#  19]
          +0.003*[#  20]+0.002*[#  15]+0.002*[#  16]+0.002*[#  13]+0.002*[#  18]
          +0.001*[#  14]+0.001*[#  17]
    |psi|^2 = 1.000
==== e(   3) =    -8.78829 eV ==== 
     psi = 0.249*[#   9]+0.249*[#  10]+0.249*[#  11]+0.249*[#  12]
    |psi|^2 = 1.000
==== e(   4) =    -8.78324 eV ==== 
     psi = 0.249*[#   9]+0.249*[#  10]+0.249*[#  11]+0.249*[#  12]
    |psi|^2 = 1.000
==== e(   5) =    -8.36248 eV ==== 
     psi = 0.390*[#  14]+0.390*[#  17]+0.093*[#  13]+0.093*[#  18]+0.009*[#  15]
          +0.009*[#  16]+0.003*[#  19]+0.003*[#  20]+0.001*[#  21]+0.001*[#  22]
          +0.001*[#   9]+0.001*[#  10]+0.001*[#  11]+0.001*[#  12]
    |psi|^2 = 1.000
==== e(   6) =    -8.36248 eV ==== 
     psi = 0.403*[#  14]+0.403*[#  17]+0.081*[#  13]+0.081*[#  18]+0.009*[#  15]
          +0.009*[#  16]+0.003*[#  19]+0.003*[#  20]+0.001*[#  21]+0.001*[#  22]
          +0.001*[#   9]+0.001*[#  10]+0.001*[#  11]+0.001*[#  12]
    |psi|^2 = 1.000
==== e(   7) =    -8.32353 eV ==== 
     psi = 0.237*[#  15]+0.237*[#  16]+0.208*[#  13]+0.208*[#  18]+0.049*[#  14]
          +0.049*[#  17]+0.002*[#   9]+0.002*[#  10]+0.002*[#  11]+0.002*[#  12]
          
    |psi|^2 = 1.000
==== e(   8) =    -8.32353 eV ==== 
     psi = 0.237*[#  15]+0.237*[#  16]+0.194*[#  13]+0.194*[#  18]+0.063*[#  14]
          +0.063*[#  17]+0.002*[#   9]+0.002*[#  10]+0.002*[#  11]+0.002*[#  12]
          
    |psi|^2 = 1.000
==== e(   9) =    -8.30757 eV ==== 
     psi = 0.249*[#  15]+0.249*[#  16]+0.207*[#  13]+0.207*[#  18]+0.041*[#  14]
          +0.041*[#  17]
    |psi|^2 = 1.000
==== e(  10) =    -8.30190 eV ==== 
     psi = 0.249*[#  15]+0.249*[#  16]+0.208*[#  13]+0.208*[#  18]+0.042*[#  14]
          +0.042*[#  17]
    |psi|^2 = 1.000
==== e(  11) =    -5.54338 eV ==== 
     psi = 0.272*[#  19]+0.272*[#  20]+0.119*[#   1]+0.119*[#   2]+0.028*[#   5]
          +0.028*[#   6]+0.028*[#   7]+0.028*[#   8]+0.027*[#   3]+0.027*[#   4]
          +0.006*[#  23]+0.006*[#  24]+0.006*[#  25]+0.006*[#  26]+0.005*[#  21]
          +0.005*[#  22]+0.002*[#  14]+0.002*[#  17]+0.001*[#  13]+0.001*[#  18]
          +0.001*[#   9]+0.001*[#  10]+0.001*[#  11]+0.001*[#  12]+0.001*[#  15]
          +0.001*[#  16]
    |psi|^2 = 0.997
==== e(  12) =    -5.54338 eV ==== 
     psi = 0.272*[#  19]+0.272*[#  20]+0.119*[#   1]+0.119*[#   2]+0.028*[#   5]
          +0.028*[#   6]+0.028*[#   7]+0.028*[#   8]+0.027*[#   3]+0.027*[#   4]
          +0.006*[#  23]+0.006*[#  24]+0.006*[#  25]+0.006*[#  26]+0.005*[#  21]
          +0.005*[#  22]+0.002*[#  14]+0.002*[#  17]+0.001*[#  13]+0.001*[#  18]
          +0.001*[#   9]+0.001*[#  10]+0.001*[#  11]+0.001*[#  12]+0.001*[#  15]
          +0.001*[#  16]
    |psi|^2 = 0.997
==== e(  13) =     2.13727 eV ==== 
     psi = 0.133*[#   1]+0.133*[#   2]+0.084*[#  21]+0.084*[#  22]+0.075*[#  23]
          +0.075*[#  24]+0.075*[#  25]+0.075*[#  26]+0.073*[#  19]+0.073*[#  20]
          +0.019*[#   3]+0.019*[#   4]+0.018*[#   5]+0.018*[#   6]+0.018*[#   7]
          +0.018*[#   8]
    |psi|^2 = 0.994
==== e(  14) =     2.13727 eV ==== 
     psi = 0.133*[#   1]+0.133*[#   2]+0.084*[#  21]+0.084*[#  22]+0.075*[#  23]
          +0.075*[#  24]+0.075*[#  25]+0.075*[#  26]+0.073*[#  19]+0.073*[#  20]
          +0.019*[#   3]+0.019*[#   4]+0.018*[#   5]+0.018*[#   6]+0.018*[#   7]
          +0.018*[#   8]
    |psi|^2 = 0.994
==== e(  15) =     5.45594 eV ==== 
     psi = 0.260*[#  21]+0.260*[#  22]+0.075*[#   3]+0.075*[#   4]+0.063*[#  23]
          +0.063*[#  24]+0.063*[#  25]+0.063*[#  26]+0.017*[#   5]+0.017*[#   6]
          +0.017*[#   7]+0.017*[#   8]
    |psi|^2 = 0.996
==== e(  16) =     5.45594 eV ==== 
     psi = 0.260*[#  21]+0.260*[#  22]+0.075*[#   3]+0.075*[#   4]+0.063*[#  23]
          +0.063*[#  24]+0.063*[#  25]+0.063*[#  26]+0.017*[#   5]+0.017*[#   6]
          +0.017*[#   7]+0.017*[#   8]
    |psi|^2 = 0.996
==== e(  17) =     5.66062 eV ==== 
     psi = 0.193*[#  23]+0.193*[#  24]+0.193*[#  25]+0.193*[#  26]+0.055*[#   5]
          +0.055*[#   6]+0.055*[#   7]+0.055*[#   8]
    |psi|^2 = 0.996
==== e(  18) =     5.66391 eV ==== 
     psi = 0.193*[#  23]+0.193*[#  24]+0.193*[#  25]+0.193*[#  26]+0.055*[#   5]
          +0.055*[#   6]+0.055*[#   7]+0.055*[#   8]
    |psi|^2 = 0.996
==== e(  19) =     7.47587 eV ==== 
     psi = 0.185*[#   1]+0.185*[#   2]+0.100*[#  19]+0.100*[#  20]+0.050*[#   3]
          +0.050*[#   4]+0.041*[#   5]+0.041*[#   6]+0.041*[#   7]+0.041*[#   8]
          +0.025*[#  23]+0.025*[#  24]+0.025*[#  25]+0.025*[#  26]+0.024*[#  21]
          +0.024*[#  22]
    |psi|^2 = 0.985
==== e(  20) =     7.47587 eV ==== 
     psi = 0.185*[#   1]+0.185*[#   2]+0.100*[#  19]+0.100*[#  20]+0.050*[#   3]
          +0.050*[#   4]+0.041*[#   5]+0.041*[#   6]+0.041*[#   7]+0.041*[#   8]
          +0.025*[#  23]+0.025*[#  24]+0.025*[#  25]+0.025*[#  26]+0.024*[#  21]
          +0.024*[#  22]
    |psi|^2 = 0.985
==== e(  21) =    10.66176 eV ==== 
     psi = 0.237*[#   3]+0.237*[#   4]+0.066*[#  21]+0.066*[#  22]+0.062*[#   5]
          +0.062*[#   6]+0.062*[#   7]+0.062*[#   8]+0.018*[#  23]+0.018*[#  24]
          +0.018*[#  25]+0.018*[#  26]
    |psi|^2 = 0.927
==== e(  22) =    10.66176 eV ==== 
     psi = 0.237*[#   3]+0.237*[#   4]+0.066*[#  21]+0.066*[#  22]+0.062*[#   5]
          +0.062*[#   6]+0.062*[#   7]+0.062*[#   8]+0.018*[#  23]+0.018*[#  24]
          +0.018*[#  25]+0.018*[#  26]
    |psi|^2 = 0.927
==== e(  23) =    10.78908 eV ==== 
     psi = 0.180*[#   5]+0.180*[#   6]+0.180*[#   7]+0.180*[#   8]+0.051*[#  23]
          +0.051*[#  24]+0.051*[#  25]+0.051*[#  26]
    |psi|^2 = 0.924
==== e(  24) =    10.79165 eV ==== 
     psi = 0.179*[#   5]+0.179*[#   6]+0.179*[#   7]+0.179*[#   8]+0.051*[#  23]
          +0.051*[#  24]+0.051*[#  25]+0.051*[#  26]
    |psi|^2 = 0.924
==== e(  25) =    11.92003 eV ==== 
     psi = 0.071*[#   5]+0.071*[#   6]+0.071*[#   7]+0.071*[#   8]+0.067*[#   3]
          +0.067*[#   4]+0.055*[#  23]+0.055*[#  24]+0.055*[#  25]+0.055*[#  26]
          +0.054*[#   1]+0.054*[#   2]+0.049*[#  21]+0.049*[#  22]+0.044*[#  19]
          +0.044*[#  20]
    |psi|^2 = 0.929
==== e(  26) =    11.92003 eV ==== 
     psi = 0.071*[#   5]+0.071*[#   6]+0.071*[#   7]+0.071*[#   8]+0.067*[#   3]
          +0.067*[#   4]+0.055*[#  23]+0.055*[#  24]+0.055*[#  25]+0.055*[#  26]
          +0.054*[#   1]+0.054*[#   2]+0.049*[#  21]+0.049*[#  22]+0.044*[#  19]
          +0.044*[#  20]
    |psi|^2 = 0.929

 k =  -0.2250000000  0.2250000000  0.2250000000
==== e(   1) =    -8.79468 eV ==== 
     psi = 0.246*[#   9]+0.246*[#  10]+0.246*[#  11]+0.246*[#  12]+0.002*[#  19]
          +0.002*[#  20]+0.002*[#  15]+0.002*[#  16]+0.002*[#  13]+0.002*[#  18]
          
    |psi|^2 = 1.000
==== e(   2) =    -8.79468 eV ==== 
     psi = 0.246*[#   9]+0.246*[#  10]+0.246*[#  11]+0.246*[#  12]+0.002*[#  19]
          +0.002*[#  20]+0.002*[#  15]+0.002*[#  16]+0.002*[#  13]+0.002*[#  18]
          
    |psi|^2 = 1.000
==== e(   3) =    -8.78859 eV ==== 
     psi = 0.249*[#   9]+0.249*[#  10]+0.249*[#  11]+0.249*[#  12]
    |psi|^2 = 1.000
==== e(   4) =    -8.78360 eV ==== 
     psi = 0.249*[#   9]+0.249*[#  10]+0.249*[#  11]+0.249*[#  12]
    |psi|^2 = 1.000
==== e(   5) =    -8.36183 eV ==== 
     psi = 0.395*[#  14]+0.395*[#  17]+0.092*[#  13]+0.092*[#  18]+0.007*[#  15]
          +0.007*[#  16]+0.002*[#  19]+0.002*[#  20]+0.001*[#  21]+0.001*[#  22]
          
    |psi|^2 = 1.000
==== e(   6) =    -8.36183 eV ==== 
     psi = 0.407*[#  14]+0.407*[#  17]+0.080*[#  13]+0.080*[#  18]+0.007*[#  15]
          +0.007*[#  16]+0.002*[#  19]+0.002*[#  20]+0.001*[#  21]+0.001*[#  22]
          
    |psi|^2 = 1.000
==== e(   7) =    -8.32211 eV ==== 
     psi = 0.240*[#  15]+0.240*[#  16]+0.209*[#  13]+0.209*[#  18]+0.046*[#  14]
          +0.046*[#  17]+0.002*[#   9]+0.002*[#  10]+0.002*[#  11]+0.002*[#  12]
          
    |psi|^2 = 1.000
==== e(   8) =    -8.32211 eV ==== 
     psi = 0.240*[#  15]+0.240*[#  16]+0.196*[#  13]+0.196*[#  18]+0.059*[#  14]
          +0.059*[#  17]+0.002*[#   9]+0.002*[#  10]+0.002*[#  11]+0.002*[#  12]
          
    |psi|^2 = 1.000
==== e(   9) =    -8.30882 eV ==== 
[...]
     psi = 0.218*[#  23]+0.218*[#  26]+0.162*[#  24]+0.162*[#  25]+0.044*[#  21]
          +0.044*[#  22]+0.037*[#   6]+0.037*[#   7]+0.017*[#   3]+0.017*[#   4]
          +0.016*[#   5]+0.016*[#   8]
    |psi|^2 = 0.993
==== e(  19) =     7.44013 eV ==== 
     psi = 0.171*[#   1]+0.171*[#   2]+0.099*[#  19]+0.099*[#  20]+0.098*[#  23]
          +0.098*[#  26]+0.073*[#  21]+0.073*[#  22]+0.036*[#   6]+0.036*[#   7]
          +0.015*[#   5]+0.015*[#   8]+0.005*[#  24]+0.005*[#  25]
    |psi|^2 = 0.995
==== e(  20) =     7.46705 eV ==== 
     psi = 0.165*[#   1]+0.165*[#   2]+0.100*[#  19]+0.100*[#  20]+0.090*[#  23]
          +0.090*[#  26]+0.067*[#  24]+0.067*[#  25]+0.036*[#   3]+0.036*[#   4]
          +0.018*[#   5]+0.018*[#   8]+0.017*[#  21]+0.017*[#  22]+0.003*[#   6]
          +0.003*[#   7]
    |psi|^2 = 0.995
==== e(  21) =     9.85618 eV ==== 
     psi = 0.332*[#   3]+0.332*[#   4]+0.058*[#  24]+0.058*[#  25]+0.028*[#   6]
          +0.028*[#   7]+0.022*[#   5]+0.022*[#   8]+0.017*[#  21]+0.017*[#  22]
          +0.013*[#   1]+0.013*[#   2]+0.007*[#  19]+0.007*[#  20]+0.005*[#  23]
          +0.005*[#  26]
    |psi|^2 = 0.963
==== e(  22) =     9.88133 eV ==== 
     psi = 0.227*[#   3]+0.227*[#   4]+0.144*[#   6]+0.144*[#   7]+0.067*[#  21]
          +0.067*[#  22]+0.024*[#   5]+0.024*[#   8]+0.010*[#  19]+0.010*[#  20]
          +0.008*[#   1]+0.008*[#   2]+0.001*[#  24]+0.001*[#  25]
    |psi|^2 = 0.963
==== e(  23) =    10.00668 eV ==== 
     psi = 0.353*[#   5]+0.353*[#   8]+0.063*[#  23]+0.063*[#  26]+0.052*[#   3]
          +0.052*[#   4]+0.007*[#  24]+0.007*[#  25]+0.005*[#   1]+0.005*[#   2]
          +0.002*[#  19]+0.002*[#  20]
    |psi|^2 = 0.963
==== e(  24) =    10.01139 eV ==== 
     psi = 0.373*[#   5]+0.373*[#   8]+0.048*[#  23]+0.048*[#  26]+0.023*[#   3]
          +0.023*[#   4]+0.018*[#  21]+0.018*[#  22]+0.013*[#   6]+0.013*[#   7]
          +0.003*[#   1]+0.003*[#   2]+0.003*[#  19]+0.003*[#  20]
    |psi|^2 = 0.964
==== e(  25) =    10.32690 eV ==== 
     psi = 0.248*[#   6]+0.248*[#   7]+0.113*[#   3]+0.113*[#   4]+0.081*[#  24]
          +0.081*[#  25]+0.022*[#   5]+0.022*[#   8]+0.012*[#  23]+0.012*[#  26]
          +0.002*[#   1]+0.002*[#   2]+0.001*[#  19]+0.001*[#  20]
    |psi|^2 = 0.960
==== e(  26) =    10.33816 eV ==== 
     psi = 0.351*[#   6]+0.351*[#   7]+0.043*[#  21]+0.043*[#  22]+0.035*[#   3]
          +0.035*[#   4]+0.023*[#  24]+0.023*[#  25]+0.021*[#  23]+0.021*[#  26]
          +0.004*[#   5]+0.004*[#   8]+0.003*[#  19]+0.003*[#  20]
    |psi|^2 = 0.960

 k =  -0.0750000000  0.0750000000  0.0000000000
==== e(   1) =    -8.78909 eV ==== 
     psi = 0.482*[#  10]+0.482*[#  11]+0.015*[#   9]+0.015*[#  12]+0.002*[#  15]
          +0.002*[#  16]+0.001*[#  23]+0.001*[#  26]
    |psi|^2 = 1.000
==== e(   2) =    -8.78847 eV ==== 
     psi = 0.342*[#  10]+0.342*[#  11]+0.154*[#   9]+0.154*[#  12]+0.002*[#  15]
          +0.002*[#  16]
    |psi|^2 = 1.000
==== e(   3) =    -8.78823 eV ==== 
     psi = 0.482*[#   9]+0.482*[#  12]+0.015*[#  10]+0.015*[#  11]+0.002*[#  13]
          +0.002*[#  18]+0.001*[#  24]+0.001*[#  25]
    |psi|^2 = 1.000
==== e(   4) =    -8.78680 eV ==== 
     psi = 0.342*[#   9]+0.342*[#  12]+0.154*[#  10]+0.154*[#  11]+0.001*[#  13]
          +0.001*[#  18]
    |psi|^2 = 1.000
==== e(   5) =    -8.35817 eV ==== 
     psi = 0.412*[#  14]+0.412*[#  17]+0.086*[#  13]+0.086*[#  18]+0.002*[#  21]
          +0.002*[#  22]
    |psi|^2 = 1.000
==== e(   6) =    -8.35778 eV ==== 
     psi = 0.427*[#  14]+0.427*[#  17]+0.070*[#  13]+0.070*[#  18]+0.002*[#  21]
          +0.002*[#  22]
    |psi|^2 = 1.000
==== e(   7) =    -8.31390 eV ==== 
     psi = 0.316*[#  15]+0.316*[#  16]+0.159*[#  13]+0.159*[#  18]+0.022*[#  14]
          +0.022*[#  17]+0.002*[#  10]+0.002*[#  11]
    |psi|^2 = 1.000
==== e(   8) =    -8.31328 eV ==== 
     psi = 0.297*[#  15]+0.297*[#  16]+0.166*[#  13]+0.166*[#  18]+0.034*[#  14]
          +0.034*[#  17]+0.002*[#  10]+0.002*[#  11]
    |psi|^2 = 1.000
==== e(   9) =    -8.31327 eV ==== 
     psi = 0.268*[#  13]+0.268*[#  18]+0.180*[#  15]+0.180*[#  16]+0.048*[#  14]
          +0.048*[#  17]+0.001*[#   9]+0.001*[#  12]
    |psi|^2 = 1.000
==== e(  10) =    -8.31126 eV ==== 
     psi = 0.246*[#  13]+0.246*[#  18]+0.200*[#  15]+0.200*[#  16]+0.052*[#  14]
          +0.052*[#  17]+0.001*[#   9]+0.001*[#  12]
    |psi|^2 = 1.000
==== e(  11) =    -6.14286 eV ==== 
     psi = 0.297*[#  19]+0.297*[#  20]+0.187*[#   1]+0.187*[#   2]+0.006*[#   5]
          +0.006*[#   8]+0.003*[#   3]+0.003*[#   4]+0.002*[#   6]+0.002*[#   7]
          +0.001*[#  23]+0.001*[#  26]
    |psi|^2 = 0.997
==== e(  12) =    -6.14279 eV ==== 
     psi = 0.297*[#  19]+0.297*[#  20]+0.187*[#   1]+0.187*[#   2]+0.006*[#   5]
          +0.006*[#   8]+0.004*[#   3]+0.004*[#   4]+0.002*[#   6]+0.002*[#   7]
          +0.001*[#  23]+0.001*[#  26]
    |psi|^2 = 0.997
==== e(  13) =     5.27887 eV ==== 
     psi = 0.152*[#  21]+0.152*[#  22]+0.126*[#   1]+0.126*[#   2]+0.086*[#  23]
          +0.086*[#  26]+0.084*[#  19]+0.084*[#  20]+0.015*[#  24]+0.015*[#  25]
          +0.015*[#   6]+0.015*[#   7]+0.011*[#   5]+0.011*[#   8]+0.007*[#   3]
          +0.007*[#   4]
    |psi|^2 = 0.995
==== e(  14) =     5.29136 eV ==== 
     psi = 0.126*[#   1]+0.126*[#   2]+0.110*[#  21]+0.110*[#  22]+0.093*[#  23]
          +0.093*[#  26]+0.086*[#  19]+0.086*[#  20]+0.046*[#  24]+0.046*[#  25]
          +0.027*[#   3]+0.027*[#   4]+0.008*[#   5]+0.008*[#   8]
    |psi|^2 = 0.995
==== e(  15) =     5.98440 eV ==== 
     psi = 0.278*[#  21]+0.278*[#  22]+0.094*[#  24]+0.094*[#  25]+0.040*[#  23]
          +0.040*[#  26]+0.027*[#   5]+0.027*[#   8]+0.026*[#   6]+0.026*[#   7]
          +0.015*[#   3]+0.015*[#   4]+0.011*[#   1]+0.011*[#   2]+0.004*[#  19]
          +0.004*[#  20]
    |psi|^2 = 0.993
==== e(  16) =     6.01445 eV ==== 
     psi = 0.195*[#  21]+0.195*[#  22]+0.121*[#  24]+0.121*[#  25]+0.094*[#  23]
          +0.094*[#  26]+0.065*[#   3]+0.065*[#   4]+0.008*[#   6]+0.008*[#   7]
          +0.006*[#  19]+0.006*[#  20]+0.005*[#   1]+0.005*[#   2]
    |psi|^2 = 0.993
==== e(  17) =     6.23451 eV ==== 
     psi = 0.267*[#  24]+0.267*[#  25]+0.133*[#  23]+0.133*[#  26]+0.039*[#   5]
          +0.039*[#   8]+0.027*[#   6]+0.027*[#   7]+0.025*[#  21]+0.025*[#  22]
          +0.002*[#   1]+0.002*[#   2]
    |psi|^2 = 0.993
==== e(  18) =     6.23813 eV ==== 
     psi = 0.224*[#  24]+0.224*[#  25]+0.189*[#  23]+0.189*[#  26]+0.047*[#   6]
          +0.047*[#   7]+0.014*[#  21]+0.014*[#  22]+0.012*[#   5]+0.012*[#   8]
          +0.009*[#   3]+0.009*[#   4]
    |psi|^2 = 0.993
==== e(  19) =     7.11347 eV ==== 
     psi = 0.171*[#   1]+0.171*[#   2]+0.112*[#  23]+0.112*[#  26]+0.103*[#  19]
          +0.103*[#  20]+0.057*[#  21]+0.057*[#  22]+0.023*[#   6]+0.023*[#   7]
          +0.017*[#   5]+0.017*[#   8]+0.015*[#  24]+0.015*[#  25]
    |psi|^2 = 0.995
==== e(  20) =     7.12869 eV ==== 
     psi = 0.166*[#   1]+0.166*[#   2]+0.104*[#  23]+0.104*[#  26]+0.104*[#  19]
          +0.104*[#  20]+0.057*[#  24]+0.057*[#  25]+0.023*[#  21]+0.023*[#  22]
          +0.023*[#   3]+0.023*[#   4]+0.020*[#   5]+0.020*[#   8]
    |psi|^2 = 0.995
==== e(  21) =     9.81979 eV ==== 
     psi = 0.380*[#   3]+0.380*[#   4]+0.038*[#  21]+0.038*[#  22]+0.030*[#  24]
          +0.030*[#  25]+0.019*[#   6]+0.019*[#   7]+0.005*[#   1]+0.005*[#   2]
          +0.004*[#   5]+0.004*[#   8]+0.003*[#  23]+0.003*[#  26]+0.002*[#  19]
          +0.002*[#  20]
    |psi|^2 = 0.964
==== e(  22) =     9.83208 eV ==== 
     psi = 0.336*[#   3]+0.336*[#   4]+0.068*[#   6]+0.068*[#   7]+0.064*[#  21]
          +0.064*[#  22]+0.005*[#   5]+0.005*[#   8]+0.004*[#  19]+0.004*[#  20]
          +0.003*[#   1]+0.003*[#   2]
    |psi|^2 = 0.964
==== e(  23) =     9.97155 eV ==== 
     psi = 0.385*[#   5]+0.385*[#   8]+0.065*[#  23]+0.065*[#  26]+0.016*[#   3]
          +0.016*[#   4]+0.008*[#   6]+0.008*[#   7]+0.004*[#   1]+0.004*[#   2]
          +0.002*[#  19]+0.002*[#  20]+0.002*[#  24]+0.002*[#  25]
    |psi|^2 = 0.963
==== e(  24) =     9.97375 eV ==== 
     psi = 0.405*[#   5]+0.405*[#   8]+0.053*[#  23]+0.053*[#  26]+0.009*[#  21]
          +0.009*[#  22]+0.006*[#   3]+0.006*[#   4]+0.003*[#  24]+0.003*[#  25]
          +0.003*[#   1]+0.003*[#   2]+0.002*[#  19]+0.002*[#  20]+0.001*[#   6]
          +0.001*[#   7]
    |psi|^2 = 0.963
==== e(  25) =    10.10895 eV ==== 
     psi = 0.331*[#   6]+0.331*[#   7]+0.073*[#  24]+0.073*[#  25]+0.054*[#   3]
          +0.054*[#   4]+0.019*[#   5]+0.019*[#   8]+0.003*[#  23]+0.003*[#  26]
          +0.001*[#   1]+0.001*[#   2]
    |psi|^2 = 0.962
==== e(  26) =    10.11558 eV ==== 
     psi = 0.387*[#   6]+0.387*[#   7]+0.039*[#  24]+0.039*[#  25]+0.022*[#  21]
          +0.022*[#  22]+0.020*[#   3]+0.020*[#   4]+0.011*[#  23]+0.011*[#  26]
          
    |psi|^2 = 0.962

 k =  -0.0375000000  0.0375000000  0.0000000000
==== e(   1) =    -8.78845 eV ==== 
     psi = 0.415*[#  10]+0.415*[#  11]+0.081*[#   9]+0.081*[#  12]+0.002*[#  15]
          +0.002*[#  16]+0.001*[#  23]+0.001*[#  26]
    |psi|^2 = 1.000
==== e(   2) =    -8.78815 eV ==== 
     psi = 0.415*[#   9]+0.415*[#  12]+0.081*[#  10]+0.081*[#  11]+0.002*[#  13]
          +0.002*[#  18]+0.001*[#  24]+0.001*[#  25]
    |psi|^2 = 1.000
==== e(   3) =    -8.78800 eV ==== 
     psi = 0.325*[#  10]+0.325*[#  11]+0.172*[#   9]+0.172*[#  12]+0.002*[#  15]
          +0.002*[#  16]
    |psi|^2 = 1.000
==== e(   4) =    -8.78744 eV ==== 
     psi = 0.325*[#   9]+0.325*[#  12]+0.172*[#  10]+0.172*[#  11]+0.001*[#  13]
          +0.001*[#  18]
    |psi|^2 = 1.000
==== e(   5) =    -8.35769 eV ==== 
     psi = 0.412*[#  14]+0.412*[#  17]+0.085*[#  13]+0.085*[#  18]+0.002*[#  21]
          +0.002*[#  22]
    |psi|^2 = 1.000
==== e(   6) =    -8.35764 eV ==== 
     psi = 0.420*[#  14]+0.420*[#  17]+0.078*[#  13]+0.078*[#  18]+0.002*[#  21]
          +0.002*[#  22]
    |psi|^2 = 1.000
==== e(   7) =    -8.31318 eV ==== 
     psi = 0.440*[#  15]+0.440*[#  16]+0.047*[#  13]+0.047*[#  18]+0.010*[#  14]
          +0.010*[#  17]+0.002*[#  10]+0.002*[#  11]
    |psi|^2 = 1.000
==== e(   8) =    -8.31311 eV ==== 
     psi = 0.372*[#  13]+0.372*[#  18]+0.068*[#  14]+0.068*[#  17]+0.057*[#  15]
          +0.057*[#  16]+0.002*[#   9]+0.002*[#  12]
    |psi|^2 = 1.000
==== e(   9) =    -8.31283 eV ==== 
     psi = 0.278*[#  15]+0.278*[#  16]+0.181*[#  13]+0.181*[#  18]+0.038*[#  14]
          +0.038*[#  17]+0.001*[#  10]+0.001*[#  11]+0.001*[#   9]+0.001*[#  12]
          
    |psi|^2 = 1.000
==== e(  10) =    -8.31212 eV ==== 
     psi = 0.230*[#  13]+0.230*[#  18]+0.219*[#  15]+0.219*[#  16]+0.047*[#  14]
          +0.047*[#  17]+0.001*[#   9]+0.001*[#  12]+0.001*[#  10]+0.001*[#  11]
          
    |psi|^2 = 1.000
==== e(  11) =    -6.17362 eV ==== 
     psi = 0.301*[#  19]+0.301*[#  20]+0.194*[#   1]+0.194*[#   2]+0.002*[#   5]
          +0.002*[#   8]
    |psi|^2 = 0.997
==== e(  12) =    -6.17361 eV ==== 
     psi = 0.301*[#  19]+0.301*[#  20]+0.194*[#   1]+0.194*[#   2]+0.002*[#   5]
          +0.002*[#   8]
    |psi|^2 = 0.997
==== e(  13) =     5.74296 eV ==== 
     psi = 0.231*[#  21]+0.231*[#  22]+0.098*[#   1]+0.098*[#   2]+0.064*[#  19]
          +0.064*[#  20]+0.052*[#  23]+0.052*[#  26]+0.024*[#   3]+0.024*[#   4]
          +0.011*[#  24]+0.011*[#  25]+0.008*[#   5]+0.008*[#   8]+0.007*[#   6]
          +0.007*[#   7]+0.001*[#  14]+0.001*[#  17]
    |psi|^2 = 0.994
==== e(  14) =     5.75016 eV ==== 
     psi = 0.211*[#  21]+0.211*[#  22]+0.097*[#   1]+0.097*[#   2]+0.065*[#  19]
          +0.065*[#  20]+0.057*[#  23]+0.057*[#  26]+0.036*[#   3]+0.036*[#   4]
          +0.023*[#  24]+0.023*[#  25]+0.005*[#   5]+0.005*[#   8]+0.001*[#  14]
          +0.001*[#  17]
    |psi|^2 = 0.994
==== e(  15) =     6.08590 eV ==== 
     psi = 0.199*[#  21]+0.199*[#  22]+0.114*[#  23]+0.114*[#  26]+0.069*[#  24]
          +0.069*[#  25]+0.036*[#   1]+0.036*[#   2]+0.027*[#   5]+0.027*[#   8]
          +0.022*[#  19]+0.022*[#  20]+0.017*[#   3]+0.017*[#   4]+0.012*[#   6]
          +0.012*[#   7]
    |psi|^2 = 0.993
==== e(  16) =     6.09928 eV ==== 
     psi = 0.166*[#  21]+0.166*[#  22]+0.148*[#  23]+0.148*[#  26]+0.068*[#  24]
          +0.068*[#  25]+0.039*[#   3]+0.039*[#   4]+0.033*[#   1]+0.033*[#   2]
          +0.023*[#  19]+0.023*[#  20]+0.011*[#   5]+0.011*[#   8]+0.007*[#   6]
          +0.007*[#   7]
    |psi|^2 = 0.993
==== e(  17) =     6.28415 eV ==== 
     psi = 0.321*[#  24]+0.321*[#  25]+0.106*[#  23]+0.106*[#  26]+0.037*[#   6]
          +0.037*[#   7]+0.026*[#   5]+0.026*[#   8]+0.002*[#  21]+0.002*[#  22]
          
    |psi|^2 = 0.992
==== e(  18) =     6.28433 eV ==== 
     psi = 0.288*[#  24]+0.288*[#  25]+0.142*[#  23]+0.142*[#  26]+0.051*[#   6]
          +0.051*[#   7]+0.011*[#   5]+0.011*[#   8]+0.002*[#   3]+0.002*[#   4]
          
    |psi|^2 = 0.992
==== e(  19) =     6.73215 eV ==== 
     psi = 0.172*[#   1]+0.172*[#   2]+0.124*[#  23]+0.124*[#  26]+0.108*[#  19]
          +0.108*[#  20]+0.033*[#  21]+0.033*[#  22]+0.029*[#  24]+0.029*[#  25]
          +0.018*[#   5]+0.018*[#   8]+0.012*[#   6]+0.012*[#   7]
    |psi|^2 = 0.995
==== e(  20) =     6.73761 eV ==== 
     psi = 0.170*[#   1]+0.170*[#   2]+0.118*[#  23]+0.118*[#  26]+0.107*[#  19]
          +0.107*[#  20]+0.049*[#  24]+0.049*[#  25]+0.020*[#   5]+0.020*[#   8]
          +0.020*[#  21]+0.020*[#  22]+0.010*[#   3]+0.010*[#   4]+0.002*[#   6]
          +0.002*[#   7]
    |psi|^2 = 0.995
==== e(  21) =     9.78412 eV ==== 
     psi = 0.415*[#   3]+0.415*[#   4]+0.057*[#  21]+0.057*[#  22]+0.006*[#  24]
          +0.006*[#  25]+0.002*[#   6]+0.002*[#   7]
    |psi|^2 = 0.964
==== e(  22) =     9.78622 eV ==== 
     psi = 0.409*[#   3]+0.409*[#   4]+0.061*[#  21]+0.061*[#  22]+0.009*[#   6]
          +0.009*[#   7]
    |psi|^2 = 0.964
==== e(  23) =     9.95831 eV ==== 
     psi = 0.399*[#   5]+0.399*[#   8]+0.063*[#  23]+0.063*[#  26]+0.015*[#   6]
          +0.015*[#   7]+0.002*[#   3]+0.002*[#   4]+0.001*[#   1]+0.001*[#   2]
          
    |psi|^2 = 0.963
==== e(  24) =     9.95860 eV ==== 
     psi = 0.414*[#   5]+0.414*[#   8]+0.057*[#  23]+0.057*[#  26]+0.004*[#  24]
          +0.004*[#  25]+0.003*[#   6]+0.003*[#   7]+0.002*[#  21]+0.002*[#  22]
          +0.001*[#   1]+0.001*[#   2]
    |psi|^2 = 0.963
==== e(  25) =     9.98999 eV ==== 
     psi = 0.392*[#   6]+0.392*[#   7]+0.065*[#  24]+0.065*[#  25]+0.017*[#   5]
          +0.017*[#   8]+0.007*[#   3]+0.007*[#   4]
    |psi|^2 = 0.963
==== e(  26) =     9.99118 eV ==== 
     psi = 0.412*[#   6]+0.412*[#   7]+0.055*[#  24]+0.055*[#  25]+0.005*[#  23]
          +0.005*[#  26]+0.004*[#  21]+0.004*[#  22]+0.003*[#   5]+0.003*[#   8]
          +0.002*[#   3]+0.002*[#   4]
    |psi|^2 = 0.963

 k =   0.0000000000  0.0000000000  0.0000000000
==== e(   1) =    -8.78796 eV ==== 
     psi = 0.257*[#   9]+0.257*[#  12]+0.239*[#  10]+0.239*[#  11]+0.001*[#  15]
          +0.001*[#  16]
    |psi|^2 = 1.000
==== e(   2) =    -8.78796 eV ==== 
     psi = 0.257*[#   9]+0.257*[#  12]+0.239*[#  10]+0.239*[#  11]+0.001*[#  15]
          +0.001*[#  16]
    |psi|^2 = 1.000
==== e(   3) =    -8.78796 eV ==== 
     psi = 0.257*[#  10]+0.257*[#  11]+0.239*[#   9]+0.239*[#  12]+0.001*[#  15]
          +0.001*[#  16]
    |psi|^2 = 1.000
==== e(   4) =    -8.78796 eV ==== 
     psi = 0.257*[#  10]+0.257*[#  11]+0.239*[#   9]+0.239*[#  12]+0.001*[#  15]
          +0.001*[#  16]
    |psi|^2 = 1.000
==== e(   5) =    -8.35756 eV ==== 
     psi = 0.415*[#  14]+0.415*[#  17]+0.083*[#  13]+0.083*[#  18]+0.002*[#  21]
          +0.002*[#  22]
    |psi|^2 = 1.000
==== e(   6) =    -8.35756 eV ==== 
     psi = 0.415*[#  14]+0.415*[#  17]+0.083*[#  13]+0.083*[#  18]+0.002*[#  21]
          +0.002*[#  22]
    |psi|^2 = 1.000
==== e(   7) =    -8.31277 eV ==== 
     psi = 0.232*[#  13]+0.232*[#  18]+0.219*[#  15]+0.219*[#  16]+0.046*[#  14]
          +0.046*[#  17]+0.001*[#   9]+0.001*[#  12]+0.001*[#  10]+0.001*[#  11]
          
    |psi|^2 = 1.000
==== e(   8) =    -8.31277 eV ==== 
     psi = 0.232*[#  13]+0.232*[#  18]+0.219*[#  15]+0.219*[#  16]+0.046*[#  14]
          +0.046*[#  17]+0.001*[#   9]+0.001*[#  12]+0.001*[#  10]+0.001*[#  11]
          
    |psi|^2 = 1.000
==== e(   9) =    -8.31277 eV ==== 
     psi = 0.278*[#  15]+0.278*[#  16]+0.182*[#  13]+0.182*[#  18]+0.036*[#  14]
          +0.036*[#  17]+0.001*[#  10]+0.001*[#  11]+0.001*[#   9]+0.001*[#  12]
          
    |psi|^2 = 1.000
==== e(  10) =    -8.31277 eV ==== 
     psi = 0.278*[#  15]+0.278*[#  16]+0.182*[#  13]+0.182*[#  18]+0.036*[#  14]
          +0.036*[#  17]+0.001*[#  10]+0.001*[#  11]+0.001*[#   9]+0.001*[#  12]
          
    |psi|^2 = 1.000
==== e(  11) =    -6.18391 eV ==== 
     psi = 0.303*[#  19]+0.303*[#  20]+0.196*[#   1]+0.196*[#   2]
    |psi|^2 = 0.997
==== e(  12) =    -6.18391 eV ==== 
     psi = 0.303*[#  19]+0.303*[#  20]+0.196*[#   1]+0.196*[#   2]
    |psi|^2 = 0.997
==== e(  13) =     5.97606 eV ==== 
     psi = 0.433*[#  21]+0.433*[#  22]+0.061*[#   3]+0.061*[#   4]+0.002*[#  14]
          +0.002*[#  17]
    |psi|^2 = 0.993
==== e(  14) =     5.97606 eV ==== 
     psi = 0.433*[#  21]+0.433*[#  22]+0.061*[#   3]+0.061*[#   4]+0.002*[#  14]
          +0.002*[#  17]
    |psi|^2 = 0.993
==== e(  15) =     6.30417 eV ==== 
     psi = 0.241*[#  24]+0.241*[#  25]+0.192*[#  23]+0.192*[#  26]+0.034*[#   6]
          +0.034*[#   7]+0.027*[#   5]+0.027*[#   8]
    |psi|^2 = 0.992
==== e(  16) =     6.30417 eV ==== 
     psi = 0.240*[#  24]+0.240*[#  25]+0.192*[#  23]+0.192*[#  26]+0.034*[#   6]
          +0.034*[#   7]+0.027*[#   5]+0.027*[#   8]
    |psi|^2 = 0.992
==== e(  17) =     6.30417 eV ==== 
     psi = 0.241*[#  23]+0.241*[#  26]+0.192*[#  24]+0.192*[#  25]+0.034*[#   5]
          +0.034*[#   8]+0.027*[#   6]+0.027*[#   7]
    |psi|^2 = 0.992
==== e(  18) =     6.30417 eV ==== 
     psi = 0.240*[#  23]+0.240*[#  26]+0.193*[#  24]+0.193*[#  25]+0.034*[#   5]
          +0.034*[#   8]+0.027*[#   6]+0.027*[#   7]
    |psi|^2 = 0.992
==== e(  19) =     6.34636 eV ==== 
     psi = 0.303*[#   1]+0.303*[#   2]+0.195*[#  19]+0.195*[#  20]
    |psi|^2 = 0.996
==== e(  20) =     6.34636 eV ==== 
     psi = 0.303*[#   1]+0.303*[#   2]+0.195*[#  19]+0.195*[#  20]
    |psi|^2 = 0.996
==== e(  21) =     9.76524 eV ==== 
     psi = 0.421*[#   3]+0.421*[#   4]+0.061*[#  21]+0.061*[#  22]
    |psi|^2 = 0.964
==== e(  22) =     9.76524 eV ==== 
     psi = 0.421*[#   3]+0.421*[#   4]+0.061*[#  21]+0.061*[#  22]
    |psi|^2 = 0.964
==== e(  23) =     9.95566 eV ==== 
     psi = 0.317*[#   5]+0.317*[#   8]+0.103*[#   6]+0.103*[#   7]+0.047*[#  23]
          +0.047*[#  26]+0.015*[#  24]+0.015*[#  25]
    |psi|^2 = 0.963
==== e(  24) =     9.95566 eV ==== 
     psi = 0.314*[#   5]+0.314*[#   8]+0.106*[#   6]+0.106*[#   7]+0.046*[#  23]
          +0.046*[#  26]+0.016*[#  24]+0.016*[#  25]
    |psi|^2 = 0.963
==== e(  25) =     9.95566 eV ==== 
     psi = 0.315*[#   6]+0.315*[#   7]+0.104*[#   5]+0.104*[#   8]+0.047*[#  24]
          +0.047*[#  25]+0.015*[#  23]+0.015*[#  26]
    |psi|^2 = 0.963
==== e(  26) =     9.95566 eV ==== 
     psi = 0.315*[#   6]+0.315*[#   7]+0.104*[#   5]+0.104*[#   8]+0.047*[#  24]
          +0.047*[#  25]+0.015*[#  23]+0.015*[#  26]
    |psi|^2 = 0.963

Lowdin Charges: 

     Atom #   1: total charge =  12.6825, s =  1.1049, 
     Atom #   1: total charge =  12.6825, p =  1.5824, 
     Atom #   1: total charge =  12.6825, d =  9.9952, 
     Atom #   2: total charge =   5.2475, s =  1.4608, 
     Atom #   2: total charge =   5.2475, p =  3.7866, 
     Atom #   2: total charge =   5.2475, d =  0.0000, 
     Spilling Parameter:   0.0039

     PROJWFC      :     10.03s CPU      2.30s WALL


   This run was terminated on:  21:39:28  12May2024            

=------------------------------------------------------------------------------=
   JOB DONE.
=------------------------------------------------------------------------------=
