
     Program PWSCF v.7.2 starts on 12May2024 at 20: 9:38 

     This program is part of the open-source Quantum ESPRESSO suite
     for quantum simulation of materials; please cite
         "P. Giannozzi et al., J. Phys.:Condens. Matter 21 395502 (2009);
         "P. Giannozzi et al., J. Phys.:Condens. Matter 29 465901 (2017);
         "P. Giannozzi et al., J. Chem. Phys. 152 154105 (2020);
          URL http://www.quantum-espresso.org", 
     in publications or presentations arising from this work. More details at
     http://www.quantum-espresso.org/quote

     Serial version
     0 MiB available memory on the printing compute node when the environment starts

     Waiting for input...
     Reading input from standard input

     Current dimensions of program PWSCF are:
     Max number of different atomic species (ntypx) = 10
     Max number of k-points (npk) =  40000
     Max angular momentum in pseudopotentials (lmaxx) =  4
     file Ga.rel-pbe-dn-rrkjus_psl.0.2.UPF: wavefunction(s)  4S 3D 3D renormalized


     G-vector sticks info
     --------------------
     sticks:   dense  smooth     PW     G-vecs:    dense   smooth      PW
     Sum        1639     817    253                43599    15353    2637

     Using Slab Decomposition



     bravais-lattice index     =            2
     lattice parameter (alat)  =      10.8652  a.u.
     unit-cell volume          =     320.6662 (a.u.)^3
     number of atoms/cell      =            2
     number of atomic types    =            2
     number of electrons       =        18.00
     number of Kohn-Sham states=           26
     kinetic-energy cutoff     =      50.0000  Ry
     charge density cutoff     =     400.0000  Ry
     scf convergence threshold =      1.0E-08
     mixing beta               =       0.3000
     number of iterations used =            8  plain     mixing
     Exchange-correlation= PBE
                           (   1   4   3   4   0   0   0)
     Non magnetic calculation with spin-orbit


     celldm(1)=  10.865200  celldm(2)=   0.000000  celldm(3)=   0.000000
     celldm(4)=   0.000000  celldm(5)=   0.000000  celldm(6)=   0.000000

     crystal axes: (cart. coord. in units of alat)
               a(1) = (  -0.500000   0.000000   0.500000 )  
               a(2) = (   0.000000   0.500000   0.500000 )  
               a(3) = (  -0.500000   0.500000   0.000000 )  

     reciprocal axes: (cart. coord. in units 2 pi/alat)
               b(1) = ( -1.000000 -1.000000  1.000000 )  
               b(2) = (  1.000000  1.000000  1.000000 )  
               b(3) = ( -1.000000  1.000000 -1.000000 )  


     PseudoPot. # 1 for As read from file:
     ../pseudopotential/As.rel-pbe-n-rrkjus_psl.0.2.UPF
     MD5 check sum: fd1d9cb43fef956eb1cdd0c60ce90062
     Pseudo is Ultrasoft + core correction, Zval =  5.0
     Generated using "atomic" code by A. Dal Corso  v.5.0.2 svn rev. 9415
     Using radial grid of 1209 points,  6 beta functions with: 
                l(1) =   0
                l(2) =   0
                l(3) =   1
                l(4) =   1
                l(5) =   1
                l(6) =   1
     Q(r) pseudized with 0 coefficients 


     PseudoPot. # 2 for Ga read from file:
     ../pseudopotential/Ga.rel-pbe-dn-rrkjus_psl.0.2.UPF
     MD5 check sum: b82f27152fdba9c8aaf7d704465ad383
     Pseudo is Ultrasoft + core correction, Zval = 13.0
     Generated using "atomic" code by A. Dal Corso  v.5.0.2 svn rev. 9415
     Using radial grid of 1205 points, 10 beta functions with: 
                l(1) =   0
                l(2) =   0
                l(3) =   1
                l(4) =   1
                l(5) =   1
                l(6) =   1
                l(7) =   2
                l(8) =   2
                l(9) =   2
               l(10) =   2
     Q(r) pseudized with 0 coefficients 


     atomic species   valence    mass     pseudopotential
        As             5.00    74.92160     As( 1.00)
        Ga            13.00    69.72000     Ga( 1.00)

     No symmetry found



   Cartesian axes

     site n.     atom                  positions (alat units)
         1           Ga  tau(   1) = (   0.0000000   0.0000000   0.0000000  )
         2           As  tau(   2) = (   0.2500000   0.2500000   0.2500000  )

     number of k points=    63  Gaussian smearing, width (Ry)=  0.0020
                       cart. coord. in units 2pi/alat
        k(    1) = (   0.0000000   0.0000000   0.0000000), wk =   0.0080000
        k(    2) = (  -0.2000000   0.2000000  -0.2000000), wk =   0.0160000
        k(    3) = (  -0.4000000   0.4000000  -0.4000000), wk =   0.0160000
        k(    4) = (   0.2000000   0.2000000   0.2000000), wk =   0.0160000
        k(    5) = (   0.0000000   0.4000000   0.0000000), wk =   0.0160000
        k(    6) = (  -0.2000000   0.6000000  -0.2000000), wk =   0.0160000
        k(    7) = (   0.6000000  -0.2000000   0.6000000), wk =   0.0160000
        k(    8) = (   0.4000000   0.0000000   0.4000000), wk =   0.0160000
        k(    9) = (   0.4000000   0.4000000   0.4000000), wk =   0.0160000
        k(   10) = (   0.2000000   0.6000000   0.2000000), wk =   0.0160000
        k(   11) = (   0.0000000   0.8000000   0.0000000), wk =   0.0160000
        k(   12) = (   0.8000000   0.0000000   0.8000000), wk =   0.0160000
        k(   13) = (   0.6000000   0.2000000   0.6000000), wk =   0.0160000
        k(   14) = (  -0.2000000  -0.2000000   0.2000000), wk =   0.0160000
        k(   15) = (  -0.4000000   0.0000000   0.0000000), wk =   0.0160000
        k(   16) = (  -0.6000000   0.2000000  -0.2000000), wk =   0.0160000
        k(   17) = (   0.2000000  -0.6000000   0.6000000), wk =   0.0160000
        k(   18) = (  -0.0000000  -0.4000000   0.4000000), wk =   0.0160000
        k(   19) = (   0.0000000   0.0000000   0.4000000), wk =   0.0160000
        k(   20) = (  -0.2000000   0.2000000   0.2000000), wk =   0.0160000
        k(   21) = (  -0.4000000   0.4000000   0.0000000), wk =   0.0160000
        k(   22) = (   0.4000000  -0.4000000   0.8000000), wk =   0.0160000
        k(   23) = (   0.2000000  -0.2000000   0.6000000), wk =   0.0160000
        k(   24) = (   0.2000000   0.2000000   0.6000000), wk =   0.0160000
        k(   25) = (   0.0000000   0.4000000   0.4000000), wk =   0.0160000
        k(   26) = (  -0.2000000   0.6000000   0.2000000), wk =   0.0160000
        k(   27) = (   0.6000000  -0.2000000   1.0000000), wk =   0.0160000
        k(   28) = (   0.4000000   0.0000000   0.8000000), wk =   0.0160000
        k(   29) = (  -0.6000000  -0.6000000  -0.2000000), wk =   0.0160000
        k(   30) = (  -0.8000000  -0.4000000  -0.4000000), wk =   0.0160000
        k(   31) = (  -1.0000000  -0.2000000  -0.6000000), wk =   0.0160000
        k(   32) = (  -0.2000000  -1.0000000   0.2000000), wk =   0.0160000
        k(   33) = (  -0.4000000  -0.8000000  -0.0000000), wk =   0.0160000
        k(   34) = (  -0.4000000  -0.4000000   0.0000000), wk =   0.0160000
        k(   35) = (  -0.6000000  -0.2000000  -0.2000000), wk =   0.0160000
        k(   36) = (  -0.8000000   0.0000000  -0.4000000), wk =   0.0160000
        k(   37) = (   0.0000000  -0.8000000   0.4000000), wk =   0.0160000
        k(   38) = (  -0.2000000  -0.6000000   0.2000000), wk =   0.0160000
        k(   39) = (  -0.4000000  -0.4000000   0.4000000), wk =   0.0160000
        k(   40) = (  -0.6000000  -0.2000000   0.2000000), wk =   0.0160000
        k(   41) = (  -0.8000000   0.0000000   0.0000000), wk =   0.0160000
        k(   42) = (   0.0000000  -0.8000000   0.8000000), wk =   0.0160000
        k(   43) = (  -0.2000000  -0.6000000   0.6000000), wk =   0.0160000
        k(   44) = (  -0.2000000  -0.2000000   0.6000000), wk =   0.0160000
        k(   45) = (  -0.4000000   0.0000000   0.4000000), wk =   0.0160000
        k(   46) = (  -0.6000000   0.2000000   0.2000000), wk =   0.0160000
        k(   47) = (   0.2000000  -0.6000000   1.0000000), wk =   0.0160000
        k(   48) = (  -0.0000000  -0.4000000   0.8000000), wk =   0.0160000
        k(   49) = (   0.0000000   0.0000000   0.8000000), wk =   0.0160000
        k(   50) = (  -0.2000000   0.2000000   0.6000000), wk =   0.0160000
        k(   51) = (  -0.4000000   0.4000000   0.4000000), wk =   0.0160000
        k(   52) = (   0.4000000  -0.4000000   1.2000000), wk =   0.0160000
        k(   53) = (   0.2000000  -0.2000000   1.0000000), wk =   0.0160000
        k(   54) = (  -0.8000000  -0.8000000   0.0000000), wk =   0.0160000
        k(   55) = (  -1.0000000  -0.6000000  -0.2000000), wk =   0.0160000
        k(   56) = (  -1.2000000  -0.4000000  -0.4000000), wk =   0.0160000
        k(   57) = (  -0.4000000  -1.2000000   0.4000000), wk =   0.0160000
        k(   58) = (  -0.6000000  -1.0000000   0.2000000), wk =   0.0160000
        k(   59) = (  -0.6000000  -0.6000000   0.2000000), wk =   0.0160000
        k(   60) = (  -0.8000000  -0.4000000   0.0000000), wk =   0.0160000
        k(   61) = (  -1.0000000  -0.2000000  -0.2000000), wk =   0.0160000
        k(   62) = (  -0.2000000  -1.0000000   0.6000000), wk =   0.0160000
        k(   63) = (  -0.4000000  -0.8000000   0.4000000), wk =   0.0160000

     Dense  grid:    43599 G-vectors     FFT dimensions: (  50,  50,  50)

     Smooth grid:    15353 G-vectors     FFT dimensions: (  36,  36,  36)

     Estimated max dynamical RAM per process >     595.58 MB

     Initial potential from superposition of free atoms

     starting charge      17.9971, renormalised to      18.0000
     Starting wfcs are   26 randomized atomic wfcs

     total cpu time spent up to now is        4.9 secs

     Self-consistent Calculation

     iteration #  1     ecut=    50.00 Ry     beta= 0.30
     Davidson diagonalization with overlap
     ethr =  1.00E-02,  avg # of iterations =  4.0

     Threshold (ethr) on eigenvalues was too large:
     Diagonalizing with lowered threshold

     Davidson diagonalization with overlap
     ethr =  2.65E-04,  avg # of iterations =  2.3

     total cpu time spent up to now is       26.2 secs

     total energy              =    -190.99992455 Ry
     estimated scf accuracy    <       0.04760720 Ry

     iteration #  2     ecut=    50.00 Ry     beta= 0.30
     Davidson diagonalization with overlap
     ethr =  2.64E-04,  avg # of iterations =  1.1

     total cpu time spent up to now is       35.2 secs

     total energy              =    -191.00048303 Ry
     estimated scf accuracy    <       0.01322424 Ry

     iteration #  3     ecut=    50.00 Ry     beta= 0.30
     Davidson diagonalization with overlap
     ethr =  7.35E-05,  avg # of iterations =  1.8

     total cpu time spent up to now is       44.9 secs

     total energy              =    -191.00118157 Ry
     estimated scf accuracy    <       0.00237316 Ry

     iteration #  4     ecut=    50.00 Ry     beta= 0.30
     Davidson diagonalization with overlap
     ethr =  1.32E-05,  avg # of iterations =  2.2

     total cpu time spent up to now is       54.3 secs

     total energy              =    -191.00128885 Ry
     estimated scf accuracy    <       0.00007214 Ry

     iteration #  5     ecut=    50.00 Ry     beta= 0.30
     Davidson diagonalization with overlap
     ethr =  4.01E-07,  avg # of iterations =  2.8

     total cpu time spent up to now is       66.4 secs

     total energy              =    -191.00131467 Ry
     estimated scf accuracy    <       0.00008097 Ry

     iteration #  6     ecut=    50.00 Ry     beta= 0.30
     Davidson diagonalization with overlap
     ethr =  4.01E-07,  avg # of iterations =  1.0

     total cpu time spent up to now is       75.8 secs

     total energy              =    -191.00131488 Ry
     estimated scf accuracy    <       0.00000956 Ry

     iteration #  7     ecut=    50.00 Ry     beta= 0.30
     Davidson diagonalization with overlap
     ethr =  5.31E-08,  avg # of iterations =  2.0

     total cpu time spent up to now is       88.0 secs

     total energy              =    -191.00131813 Ry
     estimated scf accuracy    <       0.00000072 Ry

     iteration #  8     ecut=    50.00 Ry     beta= 0.30
     Davidson diagonalization with overlap
     ethr =  4.01E-09,  avg # of iterations =  1.0

     total cpu time spent up to now is       97.0 secs

     total energy              =    -191.00131800 Ry
     estimated scf accuracy    <       0.00000034 Ry

     iteration #  9     ecut=    50.00 Ry     beta= 0.30
     Davidson diagonalization with overlap
     ethr =  1.88E-09,  avg # of iterations =  2.0

     total cpu time spent up to now is      107.5 secs

     total energy              =    -191.00131800 Ry
     estimated scf accuracy    <       0.00000005 Ry

     iteration # 10     ecut=    50.00 Ry     beta= 0.30
     Davidson diagonalization with overlap
     ethr =  2.69E-10,  avg # of iterations =  2.0

     total cpu time spent up to now is      118.8 secs

     End of self-consistent calculation

          k = 0.0000 0.0000 0.0000 (  1917 PWs)   bands (ev):

    -8.7890  -8.7890  -8.7890  -8.7890  -8.3586  -8.3586  -8.3138  -8.3138
    -8.3138  -8.3138  -6.1839  -6.1839   5.9760   5.9760   6.3041   6.3041
     6.3041   6.3041   6.3463   6.3463   9.7652   9.7652   9.9556   9.9556
     9.9556   9.9556

          k =-0.2000 0.2000-0.2000 (  1922 PWs)   bands (ev):

    -8.7944  -8.7944  -8.7898  -8.7850  -8.3621  -8.3621  -8.3216  -8.3216
    -8.3110  -8.3056  -5.7625  -5.7625   2.9298   2.9298   5.6211   5.6211
     5.8281   5.8314   7.5893   7.5893  10.4911  10.4911  10.6233  10.6255
    11.1689  11.1689

          k =-0.4000 0.4000-0.4000 (  1910 PWs)   bands (ev):

    -8.8040  -8.8040  -8.7867  -8.7838  -8.3662  -8.3662  -8.3309  -8.3309
    -8.3006  -8.2973  -4.8062  -4.8062   0.2625   0.2625   5.0945   5.0945
     5.2961   5.2979   7.1262   7.1262  10.7736  10.7736  10.8741  10.8752
    13.8329  13.8329

          k = 0.2000 0.2000 0.2000 (  1922 PWs)   bands (ev):

    -8.7944  -8.7944  -8.7898  -8.7850  -8.3621  -8.3621  -8.3216  -8.3216
    -8.3110  -8.3056  -5.7625  -5.7625   2.9298   2.9298   5.6211   5.6211
     5.8281   5.8314   7.5893   7.5893  10.4911  10.4911  10.6233  10.6255
    11.1689  11.1689

          k = 0.0000 0.4000 0.0000 (  1924 PWs)   bands (ev):

    -8.8005  -8.8005  -8.7822  -8.7822  -8.3655  -8.3655  -8.3142  -8.3142
    -8.3126  -8.3126  -5.6203  -5.6203   2.9023   2.9023   4.9217   4.9217
     5.0473   5.0473   8.4838   8.4838   9.2901   9.2901  11.8354  11.8354
    11.8578  11.8578

          k =-0.2000 0.6000-0.2000 (  1930 PWs)   bands (ev):

    -8.8199  -8.8006  -8.7803  -8.7745  -8.3883  -8.3544  -8.3222  -8.3192
    -8.3035  -8.3028  -4.8016  -4.7990   0.8241   0.8489   3.8651   3.9152
     4.4870   4.4945   8.5088   8.5309  10.1326  10.1814  11.8657  11.9055
    12.5316  12.5335

          k = 0.6000-0.2000 0.6000 (  1906 PWs)   bands (ev):

    -8.8274  -8.8002  -8.7788  -8.7715  -8.3981  -8.3428  -8.3333  -8.3211
    -8.3001  -8.2985  -4.3285  -4.3264  -0.0543  -0.0199   3.1395   3.1924
     4.7086   4.7101   8.5240   8.5523  10.9231  10.9553  11.9864  11.9869
    13.6822  13.6979

          k = 0.4000 0.0000 0.4000 (  1917 PWs)   bands (ev):

    -8.8141  -8.7983  -8.7808  -8.7782  -8.3849  -8.3494  -8.3298  -8.3197
    -8.3053  -8.3028  -5.1369  -5.1333   1.4573   1.4934   3.6734   3.7354
     5.4623   5.4627   8.7040   8.7631  10.9826  11.0277  11.0778  11.0784
    11.7160  11.7410

          k = 0.4000 0.4000 0.4000 (  1910 PWs)   bands (ev):

    -8.8040  -8.8040  -8.7867  -8.7838  -8.3662  -8.3662  -8.3309  -8.3309
    -8.3006  -8.2973  -4.8062  -4.8062   0.2625   0.2625   5.0945   5.0945
     5.2961   5.2979   7.1262   7.1262  10.7736  10.7736  10.8741  10.8752
    13.8329  13.8329

          k = 0.2000 0.6000 0.2000 (  1930 PWs)   bands (ev):

    -8.8199  -8.8006  -8.7803  -8.7745  -8.3883  -8.3544  -8.3222  -8.3192
    -8.3035  -8.3028  -4.8016  -4.7990   0.8241   0.8489   3.8651   3.9152
     4.4870   4.4945   8.5088   8.5309  10.1326  10.1814  11.8657  11.9055
    12.5316  12.5335

          k = 0.0000 0.8000 0.0000 (  1936 PWs)   bands (ev):

    -8.8181  -8.8181  -8.7727  -8.7727  -8.3766  -8.3766  -8.3123  -8.3123
    -8.3017  -8.3017  -4.2717  -4.2717   0.1452   0.1452   3.7899   3.7899
     3.8778   3.8778   7.6678   7.6678   8.3088   8.3088  14.9967  14.9967
    15.0630  15.0630

          k = 0.8000 0.0000 0.8000 (  1908 PWs)   bands (ev):

    -8.8337  -8.8062  -8.7740  -8.7665  -8.4018  -8.3540  -8.3154  -8.3122
    -8.3062  -8.2967  -3.8958  -3.8951  -0.3236  -0.2847   2.7436   2.7957
     3.9350   3.9382   8.0348   8.0382   9.8531   9.8999  14.2892  14.3367
    14.5617  14.5670

          k = 0.6000 0.2000 0.6000 (  1906 PWs)   bands (ev):

    -8.8274  -8.8002  -8.7788  -8.7715  -8.3981  -8.3428  -8.3333  -8.3211
    -8.3001  -8.2985  -4.3285  -4.3264  -0.0543  -0.0199   3.1395   3.1924
     4.7086   4.7101   8.5240   8.5523  10.9231  10.9553  11.9864  11.9869
    13.6822  13.6979

          k =-0.2000-0.2000 0.2000 (  1922 PWs)   bands (ev):

    -8.7944  -8.7944  -8.7898  -8.7850  -8.3621  -8.3621  -8.3216  -8.3216
    -8.3110  -8.3056  -5.7625  -5.7625   2.9298   2.9298   5.6211   5.6211
     5.8281   5.8314   7.5893   7.5893  10.4911  10.4911  10.6233  10.6255
    11.1689  11.1689

          k =-0.4000 0.0000 0.0000 (  1924 PWs)   bands (ev):

    -8.8005  -8.8005  -8.7822  -8.7822  -8.3655  -8.3655  -8.3142  -8.3142
    -8.3126  -8.3126  -5.6203  -5.6203   2.9023   2.9023   4.9217   4.9217
     5.0473   5.0473   8.4838   8.4838   9.2901   9.2901  11.8354  11.8354
    11.8578  11.8578

          k =-0.6000 0.2000-0.2000 (  1930 PWs)   bands (ev):

    -8.8199  -8.8006  -8.7803  -8.7745  -8.3883  -8.3544  -8.3222  -8.3192
    -8.3035  -8.3028  -4.8016  -4.7990   0.8241   0.8489   3.8651   3.9152
     4.4870   4.4945   8.5088   8.5309  10.1326  10.1814  11.8657  11.9055
    12.5316  12.5335

          k = 0.2000-0.6000 0.6000 (  1906 PWs)   bands (ev):

    -8.8274  -8.8002  -8.7788  -8.7715  -8.3981  -8.3428  -8.3333  -8.3211
    -8.3001  -8.2985  -4.3285  -4.3264  -0.0543  -0.0199   3.1395   3.1924
     4.7086   4.7101   8.5240   8.5523  10.9231  10.9553  11.9864  11.9869
    13.6822  13.6979

          k =-0.0000-0.4000 0.4000 (  1917 PWs)   bands (ev):

    -8.8141  -8.7983  -8.7808  -8.7782  -8.3849  -8.3494  -8.3298  -8.3197
    -8.3053  -8.3028  -5.1369  -5.1333   1.4573   1.4934   3.6734   3.7354
     5.4623   5.4627   8.7040   8.7631  10.9826  11.0277  11.0778  11.0784
    11.7160  11.7410

          k = 0.0000 0.0000 0.4000 (  1924 PWs)   bands (ev):

    -8.8005  -8.8005  -8.7822  -8.7822  -8.3655  -8.3655  -8.3142  -8.3142
    -8.3126  -8.3126  -5.6203  -5.6203   2.9023   2.9023   4.9217   4.9217
     5.0473   5.0473   8.4838   8.4838   9.2901   9.2901  11.8354  11.8354
    11.8578  11.8578

          k =-0.2000 0.2000 0.2000 (  1922 PWs)   bands (ev):

    -8.7944  -8.7944  -8.7898  -8.7850  -8.3621  -8.3621  -8.3216  -8.3216
    -8.3110  -8.3056  -5.7625  -5.7625   2.9298   2.9298   5.6211   5.6211
     5.8281   5.8314   7.5893   7.5893  10.4911  10.4911  10.6233  10.6255
    11.1689  11.1689

          k =-0.4000 0.4000 0.0000 (  1917 PWs)   bands (ev):

    -8.8141  -8.7983  -8.7808  -8.7782  -8.3849  -8.3494  -8.3298  -8.3197
    -8.3053  -8.3028  -5.1369  -5.1333   1.4573   1.4934   3.6734   3.7354
     5.4623   5.4627   8.7040   8.7631  10.9826  11.0277  11.0778  11.0784
    11.7160  11.7410

          k = 0.4000-0.4000 0.8000 (  1906 PWs)   bands (ev):

    -8.8274  -8.8002  -8.7788  -8.7715  -8.3981  -8.3428  -8.3333  -8.3211
    -8.3001  -8.2985  -4.3285  -4.3264  -0.0543  -0.0199   3.1395   3.1924
     4.7086   4.7101   8.5240   8.5523  10.9231  10.9553  11.9864  11.9869
    13.6822  13.6979

          k = 0.2000-0.2000 0.6000 (  1930 PWs)   bands (ev):

    -8.8199  -8.8006  -8.7803  -8.7745  -8.3883  -8.3544  -8.3222  -8.3192
    -8.3035  -8.3028  -4.8016  -4.7990   0.8241   0.8489   3.8651   3.9152
     4.4870   4.4945   8.5088   8.5309  10.1326  10.1814  11.8657  11.9055
    12.5316  12.5335

          k = 0.2000 0.2000 0.6000 (  1930 PWs)   bands (ev):

    -8.8199  -8.8006  -8.7803  -8.7745  -8.3883  -8.3544  -8.3222  -8.3192
    -8.3035  -8.3028  -4.8016  -4.7990   0.8241   0.8489   3.8651   3.9152
     4.4870   4.4945   8.5088   8.5309  10.1326  10.1814  11.8657  11.9055
    12.5316  12.5335

          k = 0.0000 0.4000 0.4000 (  1917 PWs)   bands (ev):

    -8.8141  -8.7983  -8.7808  -8.7782  -8.3849  -8.3494  -8.3298  -8.3197
    -8.3053  -8.3028  -5.1369  -5.1333   1.4573   1.4934   3.6734   3.7354
     5.4623   5.4627   8.7040   8.7631  10.9826  11.0277  11.0778  11.0784
    11.7160  11.7410

          k =-0.2000 0.6000 0.2000 (  1930 PWs)   bands (ev):

    -8.8199  -8.8006  -8.7803  -8.7745  -8.3883  -8.3544  -8.3222  -8.3192
    -8.3035  -8.3028  -4.8016  -4.7990   0.8241   0.8489   3.8651   3.9152
     4.4870   4.4945   8.5088   8.5309  10.1326  10.1814  11.8657  11.9055
    12.5316  12.5335

          k = 0.6000-0.2000 1.0000 (  1906 PWs)   bands (ev):

    -8.8343  -8.8013  -8.7742  -8.7675  -8.4068  -8.3426  -8.3241  -8.3158
    -8.3028  -8.2994  -4.0925  -4.0917  -0.0305   0.0168   2.7875   2.8605
     3.6884   3.7286   9.8697  10.0040  10.2763  10.3126  11.2632  11.3247
    14.1291  14.1516

          k = 0.4000 0.0000 0.8000 (  1906 PWs)   bands (ev):

    -8.8343  -8.8013  -8.7742  -8.7675  -8.4068  -8.3426  -8.3241  -8.3158
    -8.3028  -8.2994  -4.0925  -4.0917  -0.0305   0.0168   2.7875   2.8605
     3.6884   3.7286   9.8697  10.0040  10.2763  10.3126  11.2632  11.3247
    14.1291  14.1516

          k =-0.6000-0.6000-0.2000 (  1906 PWs)   bands (ev):

    -8.8274  -8.8002  -8.7788  -8.7715  -8.3981  -8.3428  -8.3333  -8.3211
    -8.3001  -8.2985  -4.3285  -4.3264  -0.0543  -0.0199   3.1395   3.1924
     4.7086   4.7101   8.5240   8.5523  10.9231  10.9553  11.9864  11.9869
    13.6822  13.6979

          k =-0.8000-0.4000-0.4000 (  1906 PWs)   bands (ev):

    -8.8274  -8.8002  -8.7788  -8.7715  -8.3981  -8.3428  -8.3333  -8.3211
    -8.3001  -8.2985  -4.3285  -4.3264  -0.0543  -0.0199   3.1395   3.1924
     4.7086   4.7101   8.5240   8.5523  10.9231  10.9553  11.9864  11.9869
    13.6822  13.6979

          k =-1.0000-0.2000-0.6000 (  1906 PWs)   bands (ev):

    -8.8343  -8.8013  -8.7742  -8.7675  -8.4068  -8.3426  -8.3241  -8.3158
    -8.3028  -8.2994  -4.0925  -4.0917  -0.0305   0.0168   2.7875   2.8605
     3.6884   3.7286   9.8697  10.0040  10.2763  10.3126  11.2632  11.3247
    14.1291  14.1516

          k =-0.2000-1.0000 0.2000 (  1908 PWs)   bands (ev):

    -8.8337  -8.8062  -8.7740  -8.7665  -8.4018  -8.3540  -8.3154  -8.3122
    -8.3062  -8.2967  -3.8958  -3.8951  -0.3236  -0.2847   2.7436   2.7957
     3.9350   3.9382   8.0348   8.0382   9.8531   9.8999  14.2892  14.3368
    14.5617  14.5670

          k =-0.4000-0.8000-0.0000 (  1906 PWs)   bands (ev):

    -8.8343  -8.8013  -8.7742  -8.7675  -8.4068  -8.3426  -8.3241  -8.3158
    -8.3028  -8.2994  -4.0925  -4.0917  -0.0305   0.0168   2.7875   2.8605
     3.6884   3.7286   9.8697  10.0040  10.2763  10.3126  11.2632  11.3247
    14.1291  14.1516

          k =-0.4000-0.4000 0.0000 (  1917 PWs)   bands (ev):

    -8.8141  -8.7983  -8.7808  -8.7782  -8.3849  -8.3494  -8.3298  -8.3197
    -8.3053  -8.3028  -5.1369  -5.1333   1.4573   1.4934   3.6734   3.7354
     5.4623   5.4627   8.7040   8.7631  10.9826  11.0277  11.0778  11.0784
    11.7160  11.7410

          k =-0.6000-0.2000-0.2000 (  1930 PWs)   bands (ev):

    -8.8199  -8.8006  -8.7803  -8.7745  -8.3883  -8.3544  -8.3222  -8.3192
    -8.3035  -8.3028  -4.8016  -4.7990   0.8241   0.8489   3.8651   3.9152
     4.4870   4.4945   8.5088   8.5309  10.1326  10.1814  11.8657  11.9055
    12.5316  12.5335

          k =-0.8000 0.0000-0.4000 (  1906 PWs)   bands (ev):

    -8.8343  -8.8013  -8.7742  -8.7675  -8.4068  -8.3426  -8.3241  -8.3158
    -8.3028  -8.2994  -4.0925  -4.0917  -0.0305   0.0168   2.7875   2.8605
     3.6884   3.7286   9.8697  10.0040  10.2763  10.3126  11.2632  11.3247
    14.1291  14.1516

          k = 0.0000-0.8000 0.4000 (  1906 PWs)   bands (ev):

    -8.8343  -8.8013  -8.7742  -8.7675  -8.4068  -8.3426  -8.3241  -8.3158
    -8.3028  -8.2994  -4.0925  -4.0917  -0.0305   0.0168   2.7875   2.8605
     3.6884   3.7286   9.8697  10.0040  10.2763  10.3126  11.2632  11.3247
    14.1291  14.1516

          k =-0.2000-0.6000 0.2000 (  1930 PWs)   bands (ev):

    -8.8199  -8.8006  -8.7803  -8.7745  -8.3883  -8.3544  -8.3222  -8.3192
    -8.3035  -8.3028  -4.8016  -4.7990   0.8241   0.8489   3.8651   3.9152
     4.4870   4.4945   8.5088   8.5309  10.1326  10.1814  11.8657  11.9055
    12.5316  12.5335

          k =-0.4000-0.4000 0.4000 (  1910 PWs)   bands (ev):

    -8.8040  -8.8040  -8.7867  -8.7838  -8.3662  -8.3662  -8.3309  -8.3309
    -8.3006  -8.2973  -4.8062  -4.8062   0.2625   0.2625   5.0945   5.0945
     5.2961   5.2979   7.1262   7.1262  10.7736  10.7736  10.8741  10.8752
    13.8329  13.8329

          k =-0.6000-0.2000 0.2000 (  1930 PWs)   bands (ev):

    -8.8199  -8.8006  -8.7803  -8.7745  -8.3883  -8.3544  -8.3222  -8.3192
    -8.3035  -8.3028  -4.8016  -4.7990   0.8241   0.8489   3.8651   3.9152
     4.4870   4.4945   8.5088   8.5309  10.1326  10.1814  11.8657  11.9055
    12.5316  12.5335

          k =-0.8000 0.0000 0.0000 (  1936 PWs)   bands (ev):

    -8.8181  -8.8181  -8.7727  -8.7727  -8.3766  -8.3766  -8.3123  -8.3123
    -8.3017  -8.3017  -4.2717  -4.2717   0.1452   0.1452   3.7899   3.7899
     3.8778   3.8778   7.6678   7.6678   8.3088   8.3088  14.9967  14.9968
    15.0630  15.0630

          k = 0.0000-0.8000 0.8000 (  1908 PWs)   bands (ev):

    -8.8337  -8.8062  -8.7740  -8.7665  -8.4018  -8.3540  -8.3154  -8.3122
    -8.3062  -8.2967  -3.8958  -3.8951  -0.3236  -0.2847   2.7436   2.7957
     3.9350   3.9382   8.0348   8.0382   9.8531   9.8999  14.2892  14.3367
    14.5617  14.5670

          k =-0.2000-0.6000 0.6000 (  1906 PWs)   bands (ev):

    -8.8274  -8.8002  -8.7788  -8.7715  -8.3981  -8.3428  -8.3333  -8.3211
    -8.3001  -8.2985  -4.3285  -4.3264  -0.0543  -0.0199   3.1395   3.1924
     4.7086   4.7101   8.5240   8.5523  10.9231  10.9553  11.9864  11.9869
    13.6822  13.6979

          k =-0.2000-0.2000 0.6000 (  1930 PWs)   bands (ev):

    -8.8199  -8.8006  -8.7803  -8.7745  -8.3883  -8.3544  -8.3222  -8.3192
    -8.3035  -8.3028  -4.8016  -4.7990   0.8241   0.8489   3.8651   3.9152
     4.4870   4.4945   8.5088   8.5309  10.1326  10.1814  11.8657  11.9055
    12.5316  12.5335

          k =-0.4000 0.0000 0.4000 (  1917 PWs)   bands (ev):

    -8.8141  -8.7983  -8.7808  -8.7782  -8.3849  -8.3494  -8.3298  -8.3197
    -8.3053  -8.3028  -5.1369  -5.1333   1.4573   1.4934   3.6734   3.7354
     5.4623   5.4627   8.7040   8.7631  10.9826  11.0277  11.0778  11.0784
    11.7160  11.7410

          k =-0.6000 0.2000 0.2000 (  1930 PWs)   bands (ev):

    -8.8199  -8.8006  -8.7803  -8.7745  -8.3883  -8.3544  -8.3222  -8.3192
    -8.3035  -8.3028  -4.8016  -4.7990   0.8241   0.8489   3.8651   3.9152
     4.4870   4.4945   8.5088   8.5309  10.1326  10.1814  11.8657  11.9055
    12.5316  12.5335

          k = 0.2000-0.6000 1.0000 (  1906 PWs)   bands (ev):

    -8.8343  -8.8013  -8.7742  -8.7675  -8.4068  -8.3426  -8.3241  -8.3158
    -8.3028  -8.2994  -4.0925  -4.0917  -0.0305   0.0168   2.7875   2.8605
     3.6884   3.7286   9.8697  10.0040  10.2763  10.3126  11.2632  11.3247
    14.1291  14.1516

          k =-0.0000-0.4000 0.8000 (  1906 PWs)   bands (ev):

    -8.8343  -8.8013  -8.7742  -8.7675  -8.4068  -8.3426  -8.3241  -8.3158
    -8.3028  -8.2994  -4.0925  -4.0917  -0.0305   0.0168   2.7875   2.8605
     3.6884   3.7286   9.8697  10.0040  10.2763  10.3126  11.2632  11.3247
    14.1291  14.1516

          k = 0.0000 0.0000 0.8000 (  1936 PWs)   bands (ev):

    -8.8181  -8.8181  -8.7727  -8.7727  -8.3766  -8.3766  -8.3123  -8.3123
    -8.3017  -8.3017  -4.2717  -4.2717   0.1452   0.1452   3.7899   3.7899
     3.8778   3.8778   7.6678   7.6678   8.3088   8.3088  14.9968  14.9968
    15.0630  15.0630

          k =-0.2000 0.2000 0.6000 (  1930 PWs)   bands (ev):

    -8.8199  -8.8006  -8.7803  -8.7745  -8.3883  -8.3544  -8.3222  -8.3192
    -8.3035  -8.3028  -4.8016  -4.7990   0.8241   0.8489   3.8651   3.9152
     4.4870   4.4945   8.5088   8.5309  10.1326  10.1814  11.8657  11.9055
    12.5316  12.5335

          k =-0.4000 0.4000 0.4000 (  1910 PWs)   bands (ev):

    -8.8040  -8.8040  -8.7867  -8.7838  -8.3662  -8.3662  -8.3309  -8.3309
    -8.3006  -8.2973  -4.8062  -4.8062   0.2625   0.2625   5.0945   5.0945
     5.2961   5.2979   7.1262   7.1262  10.7736  10.7736  10.8741  10.8752
    13.8329  13.8329

          k = 0.4000-0.4000 1.2000 (  1906 PWs)   bands (ev):

    -8.8274  -8.8002  -8.7788  -8.7715  -8.3981  -8.3428  -8.3333  -8.3211
    -8.3001  -8.2985  -4.3285  -4.3264  -0.0543  -0.0199   3.1395   3.1924
     4.7086   4.7101   8.5240   8.5523  10.9231  10.9553  11.9864  11.9869
    13.6822  13.6979

          k = 0.2000-0.2000 1.0000 (  1908 PWs)   bands (ev):

    -8.8337  -8.8062  -8.7740  -8.7665  -8.4018  -8.3540  -8.3154  -8.3122
    -8.3062  -8.2967  -3.8958  -3.8951  -0.3236  -0.2847   2.7436   2.7957
     3.9350   3.9382   8.0348   8.0382   9.8531   9.8999  14.2892  14.3367
    14.5617  14.5670

          k =-0.8000-0.8000 0.0000 (  1908 PWs)   bands (ev):

    -8.8337  -8.8062  -8.7740  -8.7665  -8.4018  -8.3540  -8.3154  -8.3122
    -8.3062  -8.2967  -3.8958  -3.8951  -0.3236  -0.2847   2.7436   2.7957
     3.9350   3.9382   8.0348   8.0382   9.8531   9.8999  14.2892  14.3367
    14.5617  14.5670

          k =-1.0000-0.6000-0.2000 (  1906 PWs)   bands (ev):

    -8.8343  -8.8013  -8.7742  -8.7675  -8.4068  -8.3426  -8.3241  -8.3158
    -8.3028  -8.2994  -4.0925  -4.0917  -0.0305   0.0168   2.7875   2.8605
     3.6884   3.7286   9.8697  10.0040  10.2763  10.3126  11.2632  11.3247
    14.1291  14.1516

          k =-1.2000-0.4000-0.4000 (  1906 PWs)   bands (ev):

    -8.8274  -8.8002  -8.7788  -8.7715  -8.3981  -8.3428  -8.3333  -8.3211
    -8.3001  -8.2985  -4.3285  -4.3264  -0.0543  -0.0199   3.1395   3.1924
     4.7086   4.7101   8.5240   8.5523  10.9231  10.9553  11.9864  11.9869
    13.6822  13.6979

          k =-0.4000-1.2000 0.4000 (  1906 PWs)   bands (ev):

    -8.8274  -8.8002  -8.7788  -8.7715  -8.3981  -8.3428  -8.3333  -8.3211
    -8.3001  -8.2985  -4.3285  -4.3264  -0.0543  -0.0199   3.1395   3.1924
     4.7086   4.7101   8.5240   8.5523  10.9231  10.9553  11.9864  11.9869
    13.6822  13.6979

          k =-0.6000-1.0000 0.2000 (  1906 PWs)   bands (ev):

    -8.8343  -8.8013  -8.7742  -8.7675  -8.4068  -8.3426  -8.3241  -8.3158
    -8.3028  -8.2994  -4.0925  -4.0917  -0.0305   0.0168   2.7875   2.8605
     3.6884   3.7286   9.8697  10.0040  10.2763  10.3126  11.2632  11.3247
    14.1291  14.1516

          k =-0.6000-0.6000 0.2000 (  1906 PWs)   bands (ev):

    -8.8274  -8.8002  -8.7788  -8.7715  -8.3981  -8.3428  -8.3333  -8.3211
    -8.3001  -8.2985  -4.3285  -4.3264  -0.0543  -0.0199   3.1395   3.1924
     4.7086   4.7101   8.5240   8.5523  10.9231  10.9553  11.9864  11.9869
    13.6822  13.6979

          k =-0.8000-0.4000 0.0000 (  1906 PWs)   bands (ev):

    -8.8343  -8.8013  -8.7742  -8.7675  -8.4068  -8.3426  -8.3241  -8.3158
    -8.3028  -8.2994  -4.0925  -4.0917  -0.0305   0.0168   2.7875   2.8605
     3.6884   3.7286   9.8697  10.0040  10.2763  10.3126  11.2632  11.3247
    14.1291  14.1516

          k =-1.0000-0.2000-0.2000 (  1908 PWs)   bands (ev):

    -8.8337  -8.8062  -8.7740  -8.7665  -8.4018  -8.3540  -8.3154  -8.3122
    -8.3062  -8.2967  -3.8958  -3.8951  -0.3236  -0.2847   2.7436   2.7957
     3.9350   3.9382   8.0348   8.0382   9.8531   9.8999  14.2892  14.3367
    14.5617  14.5670

          k =-0.2000-1.0000 0.6000 (  1906 PWs)   bands (ev):

    -8.8343  -8.8013  -8.7742  -8.7675  -8.4068  -8.3426  -8.3241  -8.3158
    -8.3028  -8.2994  -4.0925  -4.0917  -0.0305   0.0168   2.7875   2.8605
     3.6884   3.7286   9.8697  10.0040  10.2763  10.3126  11.2632  11.3247
    14.1291  14.1516

          k =-0.4000-0.8000 0.4000 (  1906 PWs)   bands (ev):

    -8.8274  -8.8002  -8.7788  -8.7715  -8.3981  -8.3428  -8.3333  -8.3211
    -8.3001  -8.2985  -4.3285  -4.3264  -0.0543  -0.0199   3.1395   3.1924
     4.7086   4.7101   8.5240   8.5523  10.9231  10.9553  11.9864  11.9869
    13.6822  13.6979

     the Fermi energy is     6.3294 ev

!    total energy              =    -191.00131802 Ry
     estimated scf accuracy    <          2.8E-09 Ry
     smearing contrib. (-TS)   =      -0.00001378 Ry
     internal energy E=F+TS    =    -191.00130423 Ry

     The total energy is F=E-TS. E is the sum of the following terms:
     one-electron contribution =    -114.27207891 Ry
     hartree contribution      =      72.59393048 Ry
     xc contribution           =     -57.86465356 Ry
     ewald contribution        =     -91.45850223 Ry

     convergence has been achieved in  10 iterations

     Writing all to output data dir ../output/GaAs.save/

     init_run     :     16.19s CPU      4.56s WALL (       1 calls)
     electrons    :    500.37s CPU    113.94s WALL (       1 calls)

     Called by init_run:
     wfcinit      :     14.82s CPU      3.71s WALL (       1 calls)
     potinit      :      0.04s CPU      0.05s WALL (       1 calls)
     hinit0       :      0.60s CPU      0.62s WALL (       1 calls)

     Called by electrons:
     c_bands      :    403.33s CPU     91.75s WALL (      11 calls)
     sum_band     :     88.09s CPU     19.56s WALL (      11 calls)
     v_of_rho     :      1.22s CPU      0.47s WALL (      11 calls)
     newd         :      7.37s CPU      2.02s WALL (      11 calls)
     mix_rho      :      0.67s CPU      0.19s WALL (      11 calls)

     Called by c_bands:
     init_us_2    :      5.95s CPU      0.84s WALL (    1449 calls)
     init_us_2:cp :      5.95s CPU      0.84s WALL (    1449 calls)
     cegterg      :    369.40s CPU     86.66s WALL (     693 calls)

     Called by *egterg:
     cdiaghg      :     10.32s CPU      1.32s WALL (    2035 calls)
     h_psi        :    313.02s CPU     79.64s WALL (    2161 calls)
     s_psi        :      6.96s CPU      1.44s WALL (    2161 calls)
     g_psi        :      1.36s CPU      0.26s WALL (    1405 calls)

     Called by h_psi:
     h_psi:calbec :      7.10s CPU      2.07s WALL (    2161 calls)
     vloc_psi     :    299.24s CPU     75.92s WALL (    2161 calls)
     add_vuspsi   :      5.19s CPU      1.34s WALL (    2161 calls)

     General routines
     calbec       :      9.21s CPU      2.72s WALL (    2854 calls)
     fft          :      1.13s CPU      0.42s WALL (     265 calls)
     ffts         :      0.33s CPU      0.06s WALL (      88 calls)
     fftw         :    293.53s CPU     72.40s WALL (  209192 calls)
     interpolate  :      0.31s CPU      0.13s WALL (      44 calls)


     PWSCF        :   8m38.32s CPU   1m58.99s WALL


   This run was terminated on:  20:11:37  12May2024            

=------------------------------------------------------------------------------=
   JOB DONE.
=------------------------------------------------------------------------------=
