
     Program PWSCF v.7.2 starts on 12May2024 at 16:28:43 

     This program is part of the open-source Quantum ESPRESSO suite
     for quantum simulation of materials; please cite
         "P. Giannozzi et al., J. Phys.:Condens. Matter 21 395502 (2009);
         "P. Giannozzi et al., J. Phys.:Condens. Matter 29 465901 (2017);
         "P. Giannozzi et al., J. Chem. Phys. 152 154105 (2020);
          URL http://www.quantum-espresso.org", 
     in publications or presentations arising from this work. More details at
     http://www.quantum-espresso.org/quote

     Serial version
     0 MiB available memory on the printing compute node when the environment starts

     Waiting for input...
     Reading input from standard input

     Current dimensions of program PWSCF are:
     Max number of different atomic species (ntypx) = 10
     Max number of k-points (npk) =  40000
     Max angular momentum in pseudopotentials (lmaxx) =  4
     file Ga.rel-pbe-dn-rrkjus_psl.0.2.UPF: wavefunction(s)  4S 3D 3D renormalized
     Message from routine set_cutoff:
     ecutrho < 4*ecutwfc, are you sure?


     G-vector sticks info
     --------------------
     sticks:   dense  smooth     PW     G-vecs:    dense   smooth      PW
     Sum         793     793    361                14649    14649    4477

     Using Slab Decomposition



     bravais-lattice index     =            2
     lattice parameter (alat)  =      10.7074  a.u.
     unit-cell volume          =     306.8946 (a.u.)^3
     number of atoms/cell      =            2
     number of atomic types    =            2
     number of electrons       =        18.00
     number of Kohn-Sham states=           26
     kinetic-energy cutoff     =      80.0000  Ry
     charge density cutoff     =     200.0000  Ry
     scf convergence threshold =      1.0E-08
     mixing beta               =       0.3000
     number of iterations used =            8  plain     mixing
     Exchange-correlation= PBE
                           (   1   4   3   4   0   0   0)
     Non magnetic calculation with spin-orbit


     celldm(1)=  10.707376  celldm(2)=   0.000000  celldm(3)=   0.000000
     celldm(4)=   0.000000  celldm(5)=   0.000000  celldm(6)=   0.000000

     crystal axes: (cart. coord. in units of alat)
               a(1) = (  -0.500000   0.000000   0.500000 )  
               a(2) = (   0.000000   0.500000   0.500000 )  
               a(3) = (  -0.500000   0.500000   0.000000 )  

     reciprocal axes: (cart. coord. in units 2 pi/alat)
               b(1) = ( -1.000000 -1.000000  1.000000 )  
               b(2) = (  1.000000  1.000000  1.000000 )  
               b(3) = ( -1.000000  1.000000 -1.000000 )  


     PseudoPot. # 1 for As read from file:
     ../pseudopotential/As.rel-pbe-n-rrkjus_psl.0.2.UPF
     MD5 check sum: fd1d9cb43fef956eb1cdd0c60ce90062
     Pseudo is Ultrasoft + core correction, Zval =  5.0
     Generated using "atomic" code by A. Dal Corso  v.5.0.2 svn rev. 9415
     Using radial grid of 1209 points,  6 beta functions with: 
                l(1) =   0
                l(2) =   0
                l(3) =   1
                l(4) =   1
                l(5) =   1
                l(6) =   1
     Q(r) pseudized with 0 coefficients 


     PseudoPot. # 2 for Ga read from file:
     ../pseudopotential/Ga.rel-pbe-dn-rrkjus_psl.0.2.UPF
     MD5 check sum: b82f27152fdba9c8aaf7d704465ad383
     Pseudo is Ultrasoft + core correction, Zval = 13.0
     Generated using "atomic" code by A. Dal Corso  v.5.0.2 svn rev. 9415
     Using radial grid of 1205 points, 10 beta functions with: 
                l(1) =   0
                l(2) =   0
                l(3) =   1
                l(4) =   1
                l(5) =   1
                l(6) =   1
                l(7) =   2
                l(8) =   2
                l(9) =   2
               l(10) =   2
     Q(r) pseudized with 0 coefficients 


     atomic species   valence    mass     pseudopotential
        As             5.00    74.92160     As( 1.00)
        Ga            13.00    69.72000     Ga( 1.00)

     No symmetry found



   Cartesian axes

     site n.     atom                  positions (alat units)
         1           Ga  tau(   1) = (   0.0000000   0.0000000   0.0000000  )
         2           As  tau(   2) = (   0.2500000   0.2500000   0.2500000  )

     number of k points=     8  Gaussian smearing, width (Ry)=  0.0020
                       cart. coord. in units 2pi/alat
        k(    1) = (   0.0000000   0.0000000   0.0000000), wk =   0.1250000
        k(    2) = (   0.5000000  -0.5000000   0.5000000), wk =   0.1250000
        k(    3) = (  -0.5000000  -0.5000000  -0.5000000), wk =   0.1250000
        k(    4) = (   0.0000000  -1.0000000   0.0000000), wk =   0.1250000
        k(    5) = (   0.5000000   0.5000000  -0.5000000), wk =   0.1250000
        k(    6) = (   1.0000000   0.0000000   0.0000000), wk =   0.1250000
        k(    7) = (   0.0000000   0.0000000  -1.0000000), wk =   0.1250000
        k(    8) = (   0.5000000  -0.5000000  -0.5000000), wk =   0.1250000

     Dense  grid:    14649 G-vectors     FFT dimensions: (  36,  36,  36)

     Estimated max dynamical RAM per process >     200.21 MB

     Check: negative core charge=   -0.000007

     Initial potential from superposition of free atoms

     starting charge      17.9971, renormalised to      18.0000
     Starting wfcs are   26 randomized atomic wfcs

     total cpu time spent up to now is        1.6 secs

     Self-consistent Calculation

     iteration #  1     ecut=    80.00 Ry     beta= 0.30
     Davidson diagonalization with overlap
     ethr =  1.00E-02,  avg # of iterations =  3.5

     Threshold (ethr) on eigenvalues was too large:
     Diagonalizing with lowered threshold

     Davidson diagonalization with overlap
     ethr =  5.92E-04,  avg # of iterations =  1.1

     total cpu time spent up to now is        5.0 secs

     total energy              =    -190.82253507 Ry
     estimated scf accuracy    <       0.10763831 Ry

     iteration #  2     ecut=    80.00 Ry     beta= 0.30
     Davidson diagonalization with overlap
     ethr =  5.98E-04,  avg # of iterations =  1.0

     total cpu time spent up to now is        6.9 secs

     total energy              =    -190.82349316 Ry
     estimated scf accuracy    <       0.02895056 Ry

     iteration #  3     ecut=    80.00 Ry     beta= 0.30
     Davidson diagonalization with overlap
     ethr =  1.61E-04,  avg # of iterations =  1.6

     total cpu time spent up to now is        8.5 secs

     total energy              =    -190.82578519 Ry
     estimated scf accuracy    <       0.00517339 Ry

     iteration #  4     ecut=    80.00 Ry     beta= 0.30
     Davidson diagonalization with overlap
     ethr =  2.87E-05,  avg # of iterations =  1.9

     total cpu time spent up to now is       10.0 secs

     total energy              =    -190.82608559 Ry
     estimated scf accuracy    <       0.00017967 Ry

     iteration #  5     ecut=    80.00 Ry     beta= 0.30
     Davidson diagonalization with overlap
     ethr =  9.98E-07,  avg # of iterations =  3.8

     total cpu time spent up to now is       12.4 secs

     total energy              =    -190.82613879 Ry
     estimated scf accuracy    <       0.00002773 Ry

     iteration #  6     ecut=    80.00 Ry     beta= 0.30
     Davidson diagonalization with overlap
     ethr =  1.54E-07,  avg # of iterations =  2.0

     total cpu time spent up to now is       15.1 secs

     total energy              =    -190.82613467 Ry
     estimated scf accuracy    <       0.00001999 Ry

     iteration #  7     ecut=    80.00 Ry     beta= 0.30
     Davidson diagonalization with overlap
     ethr =  1.11E-07,  avg # of iterations =  2.0

     total cpu time spent up to now is       17.2 secs

     total energy              =    -190.82614029 Ry
     estimated scf accuracy    <       0.00000124 Ry

     iteration #  8     ecut=    80.00 Ry     beta= 0.30
     Davidson diagonalization with overlap
     ethr =  6.91E-09,  avg # of iterations =  1.5

     total cpu time spent up to now is       18.9 secs

     total energy              =    -190.82614071 Ry
     estimated scf accuracy    <       0.00000012 Ry

     iteration #  9     ecut=    80.00 Ry     beta= 0.30
     Davidson diagonalization with overlap
     ethr =  6.73E-10,  avg # of iterations =  2.4

     total cpu time spent up to now is       21.0 secs

     total energy              =    -190.82614007 Ry
     estimated scf accuracy    <       0.00000129 Ry

     iteration # 10     ecut=    80.00 Ry     beta= 0.30
     Davidson diagonalization with overlap
     ethr =  6.73E-10,  avg # of iterations =  3.0

     total cpu time spent up to now is       23.5 secs

     End of self-consistent calculation

          k = 0.0000 0.0000 0.0000 (  3719 PWs)   bands (ev):

    -8.3657  -8.3657  -8.3657  -8.3657  -7.9363  -7.9363  -7.8902  -7.8902
    -7.8902  -7.8902  -5.6573  -5.6573   6.8242   6.8242   7.1517   7.1517
     7.1517   7.1517   7.4552   7.4552  10.3977  10.3977  10.5918  10.5918
    10.5918  10.5918

          k = 0.5000-0.5000 0.5000 (  3708 PWs)   bands (ev):

    -8.3809  -8.3809  -8.3612  -8.3612  -7.9413  -7.9413  -7.9099  -7.9099
    -7.8717  -7.8717  -3.8717  -3.8717   0.2779   0.2779   5.7563   5.7563
     5.9581   5.9581   7.8941   7.8941  11.4141  11.4141  11.5062  11.5062
    14.7840  14.7840

          k =-0.5000-0.5000-0.5000 (  3708 PWs)   bands (ev):

    -8.3809  -8.3809  -8.3612  -8.3612  -7.9413  -7.9413  -7.9099  -7.9099
    -7.8717  -7.8717  -3.8717  -3.8717   0.2779   0.2779   5.7563   5.7563
     5.9581   5.9581   7.8941   7.8941  11.4141  11.4141  11.5062  11.5062
    14.7840  14.7840

          k = 0.0000-1.0000 0.0000 (  3692 PWs)   bands (ev):

    -8.3971  -8.3971  -8.3459  -8.3459  -7.9529  -7.9529  -7.8886  -7.8886
    -7.8722  -7.8722  -3.0924  -3.0924   0.0546   0.0546   4.2528   4.2528
     4.3288   4.3288   8.3464   8.3464   8.5626   8.5626  17.0124  17.0124
    17.0610  17.0610

          k = 0.5000 0.5000-0.5000 (  3708 PWs)   bands (ev):

    -8.3809  -8.3809  -8.3612  -8.3612  -7.9413  -7.9413  -7.9099  -7.9099
    -7.8717  -7.8717  -3.8717  -3.8717   0.2779   0.2779   5.7563   5.7563
     5.9581   5.9581   7.8941   7.8941  11.4141  11.4141  11.5062  11.5062
    14.7840  14.7840

          k = 1.0000 0.0000 0.0000 (  3692 PWs)   bands (ev):

    -8.3971  -8.3971  -8.3459  -8.3459  -7.9529  -7.9529  -7.8886  -7.8886
    -7.8722  -7.8722  -3.0924  -3.0924   0.0546   0.0546   4.2528   4.2528
     4.3288   4.3288   8.3464   8.3464   8.5626   8.5626  17.0124  17.0124
    17.0610  17.0610

          k = 0.0000 0.0000-1.0000 (  3692 PWs)   bands (ev):

    -8.3971  -8.3971  -8.3459  -8.3459  -7.9529  -7.9529  -7.8886  -7.8886
    -7.8722  -7.8722  -3.0924  -3.0924   0.0546   0.0546   4.2528   4.2528
     4.3288   4.3288   8.3464   8.3464   8.5626   8.5626  17.0124  17.0124
    17.0610  17.0610

          k = 0.5000-0.5000-0.5000 (  3708 PWs)   bands (ev):

    -8.3809  -8.3809  -8.3612  -8.3612  -7.9413  -7.9413  -7.9099  -7.9099
    -7.8717  -7.8717  -3.8717  -3.8717   0.2779   0.2779   5.7563   5.7563
     5.9581   5.9581   7.8941   7.8941  11.4141  11.4141  11.5062  11.5062
    14.7840  14.7840

     the Fermi energy is     7.2775 ev

!    total energy              =    -190.82614037 Ry
     estimated scf accuracy    <          3.0E-09 Ry
     smearing contrib. (-TS)   =      -0.00000000 Ry
     internal energy E=F+TS    =    -190.82614037 Ry

     The total energy is F=E-TS. E is the sum of the following terms:
     one-electron contribution =    -111.99845859 Ry
     hartree contribution      =      71.96925035 Ry
     xc contribution           =     -57.99035846 Ry
     ewald contribution        =     -92.80657367 Ry

     convergence has been achieved in  10 iterations

     Writing all to output data dir ./GaAs.save/

     init_run     :      4.12s CPU      1.22s WALL (       1 calls)
     electrons    :    114.72s CPU     21.92s WALL (       1 calls)

     Called by init_run:
     wfcinit      :      3.34s CPU      0.64s WALL (       1 calls)
     potinit      :      0.01s CPU      0.01s WALL (       1 calls)
     hinit0       :      0.49s CPU      0.50s WALL (       1 calls)

     Called by electrons:
     c_bands      :     89.98s CPU     16.97s WALL (      11 calls)
     sum_band     :     17.75s CPU      3.43s WALL (      11 calls)
     v_of_rho     :      0.66s CPU      0.22s WALL (      11 calls)
     newd         :      6.20s CPU      1.29s WALL (      11 calls)
     mix_rho      :      0.35s CPU      0.08s WALL (      11 calls)

     Called by c_bands:
     init_us_2    :      1.66s CPU      0.24s WALL (     184 calls)
     init_us_2:cp :      1.66s CPU      0.24s WALL (     184 calls)
     cegterg      :     83.62s CPU     15.85s WALL (      88 calls)

     Called by *egterg:
     cdiaghg      :      2.05s CPU      0.25s WALL (     270 calls)
     h_psi        :     56.83s CPU     11.96s WALL (     286 calls)
     s_psi        :      3.06s CPU      0.49s WALL (     286 calls)
     g_psi        :      0.51s CPU      0.08s WALL (     190 calls)

     Called by h_psi:
     h_psi:calbec :      6.03s CPU      1.23s WALL (     286 calls)
     vloc_psi     :     48.30s CPU     10.27s WALL (     286 calls)
     add_vuspsi   :      2.07s CPU      0.38s WALL (     286 calls)

     General routines
     calbec       :      7.55s CPU      1.54s WALL (     374 calls)
     fft          :      0.37s CPU      0.15s WALL (     185 calls)
     ffts         :      0.20s CPU      0.03s WALL (      44 calls)
     fftw         :     50.82s CPU     10.67s WALL (   27516 calls)


     PWSCF        :   2m 0.43s CPU     23.52s WALL


   This run was terminated on:  16:29: 6  12May2024            

=------------------------------------------------------------------------------=
   JOB DONE.
=------------------------------------------------------------------------------=
