
     Program PWSCF v.7.2 starts on 12May2024 at 16:27:29 

     This program is part of the open-source Quantum ESPRESSO suite
     for quantum simulation of materials; please cite
         "P. Giannozzi et al., J. Phys.:Condens. Matter 21 395502 (2009);
         "P. Giannozzi et al., J. Phys.:Condens. Matter 29 465901 (2017);
         "P. Giannozzi et al., J. Chem. Phys. 152 154105 (2020);
          URL http://www.quantum-espresso.org", 
     in publications or presentations arising from this work. More details at
     http://www.quantum-espresso.org/quote

     Serial version
     0 MiB available memory on the printing compute node when the environment starts

     Waiting for input...
     Reading input from standard input

     Current dimensions of program PWSCF are:
     Max number of different atomic species (ntypx) = 10
     Max number of k-points (npk) =  40000
     Max angular momentum in pseudopotentials (lmaxx) =  4
     file Ga.rel-pbe-dn-rrkjus_psl.0.2.UPF: wavefunction(s)  4S 3D 3D renormalized


     G-vector sticks info
     --------------------
     sticks:   dense  smooth     PW     G-vecs:    dense   smooth      PW
     Sum         793     637    187                14649    10489    1687

     Using Slab Decomposition



     bravais-lattice index     =            2
     lattice parameter (alat)  =      10.7074  a.u.
     unit-cell volume          =     306.8946 (a.u.)^3
     number of atoms/cell      =            2
     number of atomic types    =            2
     number of electrons       =        18.00
     number of Kohn-Sham states=           26
     kinetic-energy cutoff     =      40.0000  Ry
     charge density cutoff     =     200.0000  Ry
     scf convergence threshold =      1.0E-08
     mixing beta               =       0.3000
     number of iterations used =            8  plain     mixing
     Exchange-correlation= PBE
                           (   1   4   3   4   0   0   0)
     Non magnetic calculation with spin-orbit


     celldm(1)=  10.707376  celldm(2)=   0.000000  celldm(3)=   0.000000
     celldm(4)=   0.000000  celldm(5)=   0.000000  celldm(6)=   0.000000

     crystal axes: (cart. coord. in units of alat)
               a(1) = (  -0.500000   0.000000   0.500000 )  
               a(2) = (   0.000000   0.500000   0.500000 )  
               a(3) = (  -0.500000   0.500000   0.000000 )  

     reciprocal axes: (cart. coord. in units 2 pi/alat)
               b(1) = ( -1.000000 -1.000000  1.000000 )  
               b(2) = (  1.000000  1.000000  1.000000 )  
               b(3) = ( -1.000000  1.000000 -1.000000 )  


     PseudoPot. # 1 for As read from file:
     ../pseudopotential/As.rel-pbe-n-rrkjus_psl.0.2.UPF
     MD5 check sum: fd1d9cb43fef956eb1cdd0c60ce90062
     Pseudo is Ultrasoft + core correction, Zval =  5.0
     Generated using "atomic" code by A. Dal Corso  v.5.0.2 svn rev. 9415
     Using radial grid of 1209 points,  6 beta functions with: 
                l(1) =   0
                l(2) =   0
                l(3) =   1
                l(4) =   1
                l(5) =   1
                l(6) =   1
     Q(r) pseudized with 0 coefficients 


     PseudoPot. # 2 for Ga read from file:
     ../pseudopotential/Ga.rel-pbe-dn-rrkjus_psl.0.2.UPF
     MD5 check sum: b82f27152fdba9c8aaf7d704465ad383
     Pseudo is Ultrasoft + core correction, Zval = 13.0
     Generated using "atomic" code by A. Dal Corso  v.5.0.2 svn rev. 9415
     Using radial grid of 1205 points, 10 beta functions with: 
                l(1) =   0
                l(2) =   0
                l(3) =   1
                l(4) =   1
                l(5) =   1
                l(6) =   1
                l(7) =   2
                l(8) =   2
                l(9) =   2
               l(10) =   2
     Q(r) pseudized with 0 coefficients 


     atomic species   valence    mass     pseudopotential
        As             5.00    74.92160     As( 1.00)
        Ga            13.00    69.72000     Ga( 1.00)

     No symmetry found



   Cartesian axes

     site n.     atom                  positions (alat units)
         1           Ga  tau(   1) = (   0.0000000   0.0000000   0.0000000  )
         2           As  tau(   2) = (   0.2500000   0.2500000   0.2500000  )

     number of k points=     8  Gaussian smearing, width (Ry)=  0.0020
                       cart. coord. in units 2pi/alat
        k(    1) = (   0.0000000   0.0000000   0.0000000), wk =   0.1250000
        k(    2) = (   0.5000000  -0.5000000   0.5000000), wk =   0.1250000
        k(    3) = (  -0.5000000  -0.5000000  -0.5000000), wk =   0.1250000
        k(    4) = (   0.0000000  -1.0000000   0.0000000), wk =   0.1250000
        k(    5) = (   0.5000000   0.5000000  -0.5000000), wk =   0.1250000
        k(    6) = (   1.0000000   0.0000000   0.0000000), wk =   0.1250000
        k(    7) = (   0.0000000   0.0000000  -1.0000000), wk =   0.1250000
        k(    8) = (   0.5000000  -0.5000000  -0.5000000), wk =   0.1250000

     Dense  grid:    14649 G-vectors     FFT dimensions: (  36,  36,  36)

     Smooth grid:    10489 G-vectors     FFT dimensions: (  32,  32,  32)

     Estimated max dynamical RAM per process >     181.31 MB

     Check: negative core charge=   -0.000007

     Initial potential from superposition of free atoms

     starting charge      17.9971, renormalised to      18.0000
     Starting wfcs are   26 randomized atomic wfcs

     total cpu time spent up to now is        1.6 secs

     Self-consistent Calculation

     iteration #  1     ecut=    40.00 Ry     beta= 0.30
     Davidson diagonalization with overlap
     ethr =  1.00E-02,  avg # of iterations =  3.5

     Threshold (ethr) on eigenvalues was too large:
     Diagonalizing with lowered threshold

     Davidson diagonalization with overlap
     ethr =  5.94E-04,  avg # of iterations =  1.1

     total cpu time spent up to now is        3.8 secs

     total energy              =    -190.81966797 Ry
     estimated scf accuracy    <       0.10798903 Ry

     iteration #  2     ecut=    40.00 Ry     beta= 0.30
     Davidson diagonalization with overlap
     ethr =  6.00E-04,  avg # of iterations =  1.1

     total cpu time spent up to now is        4.8 secs

     total energy              =    -190.82078540 Ry
     estimated scf accuracy    <       0.02886335 Ry

     iteration #  3     ecut=    40.00 Ry     beta= 0.30
     Davidson diagonalization with overlap
     ethr =  1.60E-04,  avg # of iterations =  1.6

     total cpu time spent up to now is        5.8 secs

     total energy              =    -190.82302385 Ry
     estimated scf accuracy    <       0.00520741 Ry

     iteration #  4     ecut=    40.00 Ry     beta= 0.30
     Davidson diagonalization with overlap
     ethr =  2.89E-05,  avg # of iterations =  1.9

     total cpu time spent up to now is        6.8 secs

     total energy              =    -190.82331326 Ry
     estimated scf accuracy    <       0.00017328 Ry

     iteration #  5     ecut=    40.00 Ry     beta= 0.30
     Davidson diagonalization with overlap
     ethr =  9.63E-07,  avg # of iterations =  3.8

     total cpu time spent up to now is        8.1 secs

     total energy              =    -190.82337220 Ry
     estimated scf accuracy    <       0.00003051 Ry

     iteration #  6     ecut=    40.00 Ry     beta= 0.30
     Davidson diagonalization with overlap
     ethr =  1.69E-07,  avg # of iterations =  2.0

     total cpu time spent up to now is        9.3 secs

     total energy              =    -190.82336678 Ry
     estimated scf accuracy    <       0.00001563 Ry

     iteration #  7     ecut=    40.00 Ry     beta= 0.30
     Davidson diagonalization with overlap
     ethr =  8.69E-08,  avg # of iterations =  2.0

     total cpu time spent up to now is       10.5 secs

     total energy              =    -190.82337181 Ry
     estimated scf accuracy    <       0.00000164 Ry

     iteration #  8     ecut=    40.00 Ry     beta= 0.30
     Davidson diagonalization with overlap
     ethr =  9.10E-09,  avg # of iterations =  1.0

     total cpu time spent up to now is       11.4 secs

     total energy              =    -190.82337216 Ry
     estimated scf accuracy    <       0.00000009 Ry

     iteration #  9     ecut=    40.00 Ry     beta= 0.30
     Davidson diagonalization with overlap
     ethr =  4.89E-10,  avg # of iterations =  3.0

     total cpu time spent up to now is       12.9 secs

     total energy              =    -190.82337157 Ry
     estimated scf accuracy    <       0.00000197 Ry

     iteration # 10     ecut=    40.00 Ry     beta= 0.30
     Davidson diagonalization with overlap
     ethr =  4.89E-10,  avg # of iterations =  3.0

     total cpu time spent up to now is       14.1 secs

     End of self-consistent calculation

          k = 0.0000 0.0000 0.0000 (  1363 PWs)   bands (ev):

    -8.3640  -8.3640  -8.3640  -8.3640  -7.9347  -7.9347  -7.8884  -7.8884
    -7.8884  -7.8884  -5.6571  -5.6571   6.8245   6.8245   7.1520   7.1520
     7.1520   7.1520   7.4547   7.4547  10.3982  10.3982  10.5923  10.5923
    10.5923  10.5923

          k = 0.5000-0.5000 0.5000 (  1308 PWs)   bands (ev):

    -8.3786  -8.3786  -8.3591  -8.3591  -7.9389  -7.9389  -7.9077  -7.9077
    -7.8693  -7.8693  -3.8714  -3.8714   0.2780   0.2780   5.7566   5.7566
     5.9585   5.9585   7.8939   7.8939  11.4145  11.4145  11.5067  11.5067
    14.7840  14.7840

          k =-0.5000-0.5000-0.5000 (  1308 PWs)   bands (ev):

    -8.3786  -8.3786  -8.3591  -8.3591  -7.9389  -7.9389  -7.9077  -7.9077
    -7.8693  -7.8693  -3.8714  -3.8714   0.2780   0.2780   5.7566   5.7566
     5.9585   5.9585   7.8939   7.8939  11.4145  11.4145  11.5067  11.5067
    14.7840  14.7840

          k = 0.0000-1.0000 0.0000 (  1298 PWs)   bands (ev):

    -8.3948  -8.3948  -8.3435  -8.3435  -7.9506  -7.9506  -7.8862  -7.8862
    -7.8698  -7.8698  -3.0921  -3.0921   0.0544   0.0544   4.2531   4.2531
     4.3291   4.3291   8.3467   8.3467   8.5625   8.5625  17.0125  17.0125
    17.0611  17.0611

          k = 0.5000 0.5000-0.5000 (  1308 PWs)   bands (ev):

    -8.3786  -8.3786  -8.3591  -8.3591  -7.9389  -7.9389  -7.9077  -7.9077
    -7.8693  -7.8693  -3.8714  -3.8714   0.2780   0.2780   5.7566   5.7566
     5.9585   5.9585   7.8939   7.8939  11.4145  11.4145  11.5067  11.5067
    14.7840  14.7840

          k = 1.0000 0.0000 0.0000 (  1298 PWs)   bands (ev):

    -8.3948  -8.3948  -8.3435  -8.3435  -7.9506  -7.9506  -7.8862  -7.8862
    -7.8698  -7.8698  -3.0921  -3.0921   0.0544   0.0544   4.2531   4.2531
     4.3291   4.3291   8.3467   8.3467   8.5625   8.5625  17.0125  17.0125
    17.0611  17.0611

          k = 0.0000 0.0000-1.0000 (  1298 PWs)   bands (ev):

    -8.3948  -8.3948  -8.3435  -8.3435  -7.9506  -7.9506  -7.8862  -7.8862
    -7.8698  -7.8698  -3.0921  -3.0921   0.0544   0.0544   4.2531   4.2531
     4.3291   4.3291   8.3467   8.3467   8.5625   8.5625  17.0125  17.0125
    17.0611  17.0611

          k = 0.5000-0.5000-0.5000 (  1308 PWs)   bands (ev):

    -8.3786  -8.3786  -8.3591  -8.3591  -7.9389  -7.9389  -7.9077  -7.9077
    -7.8693  -7.8693  -3.8714  -3.8714   0.2780   0.2780   5.7566   5.7566
     5.9585   5.9585   7.8939   7.8939  11.4145  11.4145  11.5067  11.5067
    14.7840  14.7840

     the Fermi energy is     7.2785 ev

!    total energy              =    -190.82337200 Ry
     estimated scf accuracy    <          1.3E-09 Ry
     smearing contrib. (-TS)   =      -0.00000000 Ry
     internal energy E=F+TS    =    -190.82337200 Ry

     The total energy is F=E-TS. E is the sum of the following terms:
     one-electron contribution =    -111.99440233 Ry
     hartree contribution      =      71.96781877 Ry
     xc contribution           =     -57.99021478 Ry
     ewald contribution        =     -92.80657367 Ry

     convergence has been achieved in  10 iterations

     Writing all to output data dir ./GaAs.save/

     init_run     :      3.24s CPU      1.23s WALL (       1 calls)
     electrons    :     67.98s CPU     12.49s WALL (       1 calls)

     Called by init_run:
     wfcinit      :      1.83s CPU      0.35s WALL (       1 calls)
     potinit      :      0.02s CPU      0.02s WALL (       1 calls)
     hinit0       :      0.47s CPU      0.57s WALL (       1 calls)

     Called by electrons:
     c_bands      :     50.31s CPU      9.14s WALL (      11 calls)
     sum_band     :     12.00s CPU      2.29s WALL (      11 calls)
     v_of_rho     :      0.86s CPU      0.17s WALL (      11 calls)
     newd         :      5.10s CPU      1.03s WALL (      11 calls)
     mix_rho      :      0.36s CPU      0.09s WALL (      11 calls)

     Called by c_bands:
     init_us_2    :      0.60s CPU      0.08s WALL (     184 calls)
     init_us_2:cp :      0.60s CPU      0.08s WALL (     184 calls)
     cegterg      :     47.05s CPU      8.66s WALL (      88 calls)

     Called by *egterg:
     cdiaghg      :      1.52s CPU      0.21s WALL (     272 calls)
     h_psi        :     36.03s CPU      7.10s WALL (     288 calls)
     s_psi        :      1.51s CPU      0.25s WALL (     288 calls)
     g_psi        :      0.16s CPU      0.03s WALL (     192 calls)

     Called by h_psi:
     h_psi:calbec :      3.72s CPU      0.72s WALL (     288 calls)
     vloc_psi     :     31.14s CPU      6.14s WALL (     288 calls)
     add_vuspsi   :      1.02s CPU      0.21s WALL (     288 calls)

     General routines
     calbec       :      4.31s CPU      0.84s WALL (     376 calls)
     fft          :      0.64s CPU      0.15s WALL (     265 calls)
     ffts         :      0.33s CPU      0.05s WALL (      88 calls)
     fftw         :     30.06s CPU      5.90s WALL (   27780 calls)
     interpolate  :      0.22s CPU      0.05s WALL (      44 calls)


     PWSCF        :   1m12.47s CPU     14.12s WALL


   This run was terminated on:  16:27:44  12May2024            

=------------------------------------------------------------------------------=
   JOB DONE.
=------------------------------------------------------------------------------=
