
     Program PWSCF v.7.2 starts on 12May2024 at 16:28: 1 

     This program is part of the open-source Quantum ESPRESSO suite
     for quantum simulation of materials; please cite
         "P. Giannozzi et al., J. Phys.:Condens. Matter 21 395502 (2009);
         "P. Giannozzi et al., J. Phys.:Condens. Matter 29 465901 (2017);
         "P. Giannozzi et al., J. Chem. Phys. 152 154105 (2020);
          URL http://www.quantum-espresso.org", 
     in publications or presentations arising from this work. More details at
     http://www.quantum-espresso.org/quote

     Serial version
     0 MiB available memory on the printing compute node when the environment starts

     Waiting for input...
     Reading input from standard input

     Current dimensions of program PWSCF are:
     Max number of different atomic species (ntypx) = 10
     Max number of k-points (npk) =  40000
     Max angular momentum in pseudopotentials (lmaxx) =  4
     file Ga.rel-pbe-dn-rrkjus_psl.0.2.UPF: wavefunction(s)  4S 3D 3D renormalized
     Message from routine set_cutoff:
     ecutrho < 4*ecutwfc, are you sure?


     G-vector sticks info
     --------------------
     sticks:   dense  smooth     PW     G-vecs:    dense   smooth      PW
     Sum         793     793    271                14649    14649    2975

     Using Slab Decomposition



     bravais-lattice index     =            2
     lattice parameter (alat)  =      10.7074  a.u.
     unit-cell volume          =     306.8946 (a.u.)^3
     number of atoms/cell      =            2
     number of atomic types    =            2
     number of electrons       =        18.00
     number of Kohn-Sham states=           26
     kinetic-energy cutoff     =      60.0000  Ry
     charge density cutoff     =     200.0000  Ry
     scf convergence threshold =      1.0E-08
     mixing beta               =       0.3000
     number of iterations used =            8  plain     mixing
     Exchange-correlation= PBE
                           (   1   4   3   4   0   0   0)
     Non magnetic calculation with spin-orbit


     celldm(1)=  10.707376  celldm(2)=   0.000000  celldm(3)=   0.000000
     celldm(4)=   0.000000  celldm(5)=   0.000000  celldm(6)=   0.000000

     crystal axes: (cart. coord. in units of alat)
               a(1) = (  -0.500000   0.000000   0.500000 )  
               a(2) = (   0.000000   0.500000   0.500000 )  
               a(3) = (  -0.500000   0.500000   0.000000 )  

     reciprocal axes: (cart. coord. in units 2 pi/alat)
               b(1) = ( -1.000000 -1.000000  1.000000 )  
               b(2) = (  1.000000  1.000000  1.000000 )  
               b(3) = ( -1.000000  1.000000 -1.000000 )  


     PseudoPot. # 1 for As read from file:
     ../pseudopotential/As.rel-pbe-n-rrkjus_psl.0.2.UPF
     MD5 check sum: fd1d9cb43fef956eb1cdd0c60ce90062
     Pseudo is Ultrasoft + core correction, Zval =  5.0
     Generated using "atomic" code by A. Dal Corso  v.5.0.2 svn rev. 9415
     Using radial grid of 1209 points,  6 beta functions with: 
                l(1) =   0
                l(2) =   0
                l(3) =   1
                l(4) =   1
                l(5) =   1
                l(6) =   1
     Q(r) pseudized with 0 coefficients 


     PseudoPot. # 2 for Ga read from file:
     ../pseudopotential/Ga.rel-pbe-dn-rrkjus_psl.0.2.UPF
     MD5 check sum: b82f27152fdba9c8aaf7d704465ad383
     Pseudo is Ultrasoft + core correction, Zval = 13.0
     Generated using "atomic" code by A. Dal Corso  v.5.0.2 svn rev. 9415
     Using radial grid of 1205 points, 10 beta functions with: 
                l(1) =   0
                l(2) =   0
                l(3) =   1
                l(4) =   1
                l(5) =   1
                l(6) =   1
                l(7) =   2
                l(8) =   2
                l(9) =   2
               l(10) =   2
     Q(r) pseudized with 0 coefficients 


     atomic species   valence    mass     pseudopotential
        As             5.00    74.92160     As( 1.00)
        Ga            13.00    69.72000     Ga( 1.00)

     No symmetry found



   Cartesian axes

     site n.     atom                  positions (alat units)
         1           Ga  tau(   1) = (   0.0000000   0.0000000   0.0000000  )
         2           As  tau(   2) = (   0.2500000   0.2500000   0.2500000  )

     number of k points=     8  Gaussian smearing, width (Ry)=  0.0020
                       cart. coord. in units 2pi/alat
        k(    1) = (   0.0000000   0.0000000   0.0000000), wk =   0.1250000
        k(    2) = (   0.5000000  -0.5000000   0.5000000), wk =   0.1250000
        k(    3) = (  -0.5000000  -0.5000000  -0.5000000), wk =   0.1250000
        k(    4) = (   0.0000000  -1.0000000   0.0000000), wk =   0.1250000
        k(    5) = (   0.5000000   0.5000000  -0.5000000), wk =   0.1250000
        k(    6) = (   1.0000000   0.0000000   0.0000000), wk =   0.1250000
        k(    7) = (   0.0000000   0.0000000  -1.0000000), wk =   0.1250000
        k(    8) = (   0.5000000  -0.5000000  -0.5000000), wk =   0.1250000

     Dense  grid:    14649 G-vectors     FFT dimensions: (  36,  36,  36)

     Estimated max dynamical RAM per process >     189.98 MB

     Check: negative core charge=   -0.000007

     Initial potential from superposition of free atoms

     starting charge      17.9971, renormalised to      18.0000
     Starting wfcs are   26 randomized atomic wfcs

     total cpu time spent up to now is        1.4 secs

     Self-consistent Calculation

     iteration #  1     ecut=    60.00 Ry     beta= 0.30
     Davidson diagonalization with overlap
     ethr =  1.00E-02,  avg # of iterations =  3.5

     Threshold (ethr) on eigenvalues was too large:
     Diagonalizing with lowered threshold

     Davidson diagonalization with overlap
     ethr =  5.92E-04,  avg # of iterations =  1.1

     total cpu time spent up to now is        4.5 secs

     total energy              =    -190.82219556 Ry
     estimated scf accuracy    <       0.10774975 Ry

     iteration #  2     ecut=    60.00 Ry     beta= 0.30
     Davidson diagonalization with overlap
     ethr =  5.99E-04,  avg # of iterations =  1.0

     total cpu time spent up to now is        6.0 secs

     total energy              =    -190.82319331 Ry
     estimated scf accuracy    <       0.02891177 Ry

     iteration #  3     ecut=    60.00 Ry     beta= 0.30
     Davidson diagonalization with overlap
     ethr =  1.61E-04,  avg # of iterations =  1.6

     total cpu time spent up to now is        7.4 secs

     total energy              =    -190.82547696 Ry
     estimated scf accuracy    <       0.00518006 Ry

     iteration #  4     ecut=    60.00 Ry     beta= 0.30
     Davidson diagonalization with overlap
     ethr =  2.88E-05,  avg # of iterations =  1.9

     total cpu time spent up to now is        9.2 secs

     total energy              =    -190.82577559 Ry
     estimated scf accuracy    <       0.00017780 Ry

     iteration #  5     ecut=    60.00 Ry     beta= 0.30
     Davidson diagonalization with overlap
     ethr =  9.88E-07,  avg # of iterations =  3.8

     total cpu time spent up to now is       11.1 secs

     total energy              =    -190.82582749 Ry
     estimated scf accuracy    <       0.00002768 Ry

     iteration #  6     ecut=    60.00 Ry     beta= 0.30
     Davidson diagonalization with overlap
     ethr =  1.54E-07,  avg # of iterations =  2.0

     total cpu time spent up to now is       12.9 secs

     total energy              =    -190.82582419 Ry
     estimated scf accuracy    <       0.00001903 Ry

     iteration #  7     ecut=    60.00 Ry     beta= 0.30
     Davidson diagonalization with overlap
     ethr =  1.06E-07,  avg # of iterations =  2.0

     total cpu time spent up to now is       14.6 secs

     total energy              =    -190.82582957 Ry
     estimated scf accuracy    <       0.00000123 Ry

     iteration #  8     ecut=    60.00 Ry     beta= 0.30
     Davidson diagonalization with overlap
     ethr =  6.84E-09,  avg # of iterations =  1.5

     total cpu time spent up to now is       16.0 secs

     total energy              =    -190.82582982 Ry
     estimated scf accuracy    <       0.00000011 Ry

     iteration #  9     ecut=    60.00 Ry     beta= 0.30
     Davidson diagonalization with overlap
     ethr =  6.32E-10,  avg # of iterations =  2.0

     total cpu time spent up to now is       17.9 secs

     total energy              =    -190.82582950 Ry
     estimated scf accuracy    <       0.00000061 Ry

     iteration # 10     ecut=    60.00 Ry     beta= 0.30
     Davidson diagonalization with overlap
     ethr =  6.32E-10,  avg # of iterations =  3.0

     total cpu time spent up to now is       19.8 secs

     End of self-consistent calculation

          k = 0.0000 0.0000 0.0000 (  2421 PWs)   bands (ev):

    -8.3659  -8.3659  -8.3659  -8.3659  -7.9365  -7.9365  -7.8904  -7.8904
    -7.8904  -7.8904  -5.6573  -5.6573   6.8242   6.8242   7.1516   7.1516
     7.1516   7.1516   7.4552   7.4552  10.3977  10.3977  10.5918  10.5918
    10.5918  10.5918

          k = 0.5000-0.5000 0.5000 (  2392 PWs)   bands (ev):

    -8.3811  -8.3811  -8.3614  -8.3614  -7.9414  -7.9414  -7.9100  -7.9100
    -7.8718  -7.8718  -3.8717  -3.8717   0.2779   0.2779   5.7563   5.7563
     5.9581   5.9581   7.8941   7.8941  11.4140  11.4140  11.5062  11.5062
    14.7839  14.7839

          k =-0.5000-0.5000-0.5000 (  2392 PWs)   bands (ev):

    -8.3811  -8.3811  -8.3614  -8.3614  -7.9414  -7.9414  -7.9100  -7.9100
    -7.8718  -7.8718  -3.8717  -3.8717   0.2779   0.2779   5.7563   5.7563
     5.9581   5.9581   7.8941   7.8941  11.4140  11.4140  11.5062  11.5062
    14.7839  14.7839

          k = 0.0000-1.0000 0.0000 (  2450 PWs)   bands (ev):

    -8.3973  -8.3973  -8.3461  -8.3461  -7.9531  -7.9531  -7.8888  -7.8888
    -7.8724  -7.8724  -3.0924  -3.0924   0.0545   0.0545   4.2528   4.2528
     4.3288   4.3288   8.3464   8.3464   8.5626   8.5626  17.0123  17.0123
    17.0609  17.0609

          k = 0.5000 0.5000-0.5000 (  2392 PWs)   bands (ev):

    -8.3811  -8.3811  -8.3614  -8.3614  -7.9414  -7.9414  -7.9100  -7.9100
    -7.8718  -7.8718  -3.8717  -3.8717   0.2779   0.2779   5.7563   5.7563
     5.9581   5.9581   7.8941   7.8941  11.4140  11.4140  11.5062  11.5062
    14.7839  14.7839

          k = 1.0000 0.0000 0.0000 (  2450 PWs)   bands (ev):

    -8.3973  -8.3973  -8.3461  -8.3461  -7.9531  -7.9531  -7.8888  -7.8888
    -7.8724  -7.8724  -3.0924  -3.0924   0.0545   0.0545   4.2528   4.2528
     4.3288   4.3288   8.3464   8.3464   8.5626   8.5626  17.0123  17.0123
    17.0609  17.0609

          k = 0.0000 0.0000-1.0000 (  2450 PWs)   bands (ev):

    -8.3973  -8.3973  -8.3461  -8.3461  -7.9531  -7.9531  -7.8888  -7.8888
    -7.8724  -7.8724  -3.0924  -3.0924   0.0545   0.0545   4.2528   4.2528
     4.3288   4.3288   8.3464   8.3464   8.5626   8.5626  17.0123  17.0123
    17.0609  17.0609

          k = 0.5000-0.5000-0.5000 (  2392 PWs)   bands (ev):

    -8.3811  -8.3811  -8.3614  -8.3614  -7.9414  -7.9414  -7.9100  -7.9100
    -7.8718  -7.8718  -3.8717  -3.8717   0.2779   0.2779   5.7563   5.7563
     5.9581   5.9581   7.8941   7.8941  11.4140  11.4140  11.5062  11.5062
    14.7839  14.7839

     the Fermi energy is     7.2774 ev

!    total energy              =    -190.82582965 Ry
     estimated scf accuracy    <          3.1E-09 Ry
     smearing contrib. (-TS)   =      -0.00000000 Ry
     internal energy E=F+TS    =    -190.82582965 Ry

     The total energy is F=E-TS. E is the sum of the following terms:
     one-electron contribution =    -111.99785738 Ry
     hartree contribution      =      71.96885853 Ry
     xc contribution           =     -57.99025712 Ry
     ewald contribution        =     -92.80657367 Ry

     convergence has been achieved in  10 iterations

     Writing all to output data dir ./GaAs.save/

     init_run     :      2.83s CPU      1.05s WALL (       1 calls)
     electrons    :     97.59s CPU     18.45s WALL (       1 calls)

     Called by init_run:
     wfcinit      :      2.06s CPU      0.48s WALL (       1 calls)
     potinit      :      0.01s CPU      0.01s WALL (       1 calls)
     hinit0       :      0.47s CPU      0.48s WALL (       1 calls)

     Called by electrons:
     c_bands      :     75.55s CPU     14.09s WALL (      11 calls)
     sum_band     :     17.08s CPU      3.34s WALL (      11 calls)
     v_of_rho     :      0.78s CPU      0.18s WALL (      11 calls)
     newd         :      4.13s CPU      0.84s WALL (      11 calls)
     mix_rho      :      0.29s CPU      0.08s WALL (      11 calls)

     Called by c_bands:
     init_us_2    :      0.84s CPU      0.14s WALL (     184 calls)
     init_us_2:cp :      0.84s CPU      0.14s WALL (     184 calls)
     cegterg      :     70.67s CPU     13.29s WALL (      88 calls)

     Called by *egterg:
     cdiaghg      :      1.58s CPU      0.22s WALL (     267 calls)
     h_psi        :     52.64s CPU     10.78s WALL (     283 calls)
     s_psi        :      1.89s CPU      0.32s WALL (     283 calls)
     g_psi        :      0.33s CPU      0.06s WALL (     187 calls)

     Called by h_psi:
     h_psi:calbec :      3.79s CPU      0.75s WALL (     283 calls)
     vloc_psi     :     46.91s CPU      9.64s WALL (     283 calls)
     add_vuspsi   :      1.61s CPU      0.33s WALL (     283 calls)

     General routines
     calbec       :      5.56s CPU      1.07s WALL (     371 calls)
     fft          :      0.47s CPU      0.12s WALL (     185 calls)
     ffts         :      0.16s CPU      0.03s WALL (      44 calls)
     fftw         :     49.16s CPU     10.00s WALL (   27236 calls)


     PWSCF        :   1m41.81s CPU     19.85s WALL


   This run was terminated on:  16:28:21  12May2024            

=------------------------------------------------------------------------------=
   JOB DONE.
=------------------------------------------------------------------------------=
