
     Program PWSCF v.7.2 starts on 12May2024 at 16:27:44 

     This program is part of the open-source Quantum ESPRESSO suite
     for quantum simulation of materials; please cite
         "P. Giannozzi et al., J. Phys.:Condens. Matter 21 395502 (2009);
         "P. Giannozzi et al., J. Phys.:Condens. Matter 29 465901 (2017);
         "P. Giannozzi et al., J. Chem. Phys. 152 154105 (2020);
          URL http://www.quantum-espresso.org", 
     in publications or presentations arising from this work. More details at
     http://www.quantum-espresso.org/quote

     Serial version
     0 MiB available memory on the printing compute node when the environment starts

     Waiting for input...
     Reading input from standard input

     Current dimensions of program PWSCF are:
     Max number of different atomic species (ntypx) = 10
     Max number of k-points (npk) =  40000
     Max angular momentum in pseudopotentials (lmaxx) =  4
     file Ga.rel-pbe-dn-rrkjus_psl.0.2.UPF: wavefunction(s)  4S 3D 3D renormalized


     G-vector sticks info
     --------------------
     sticks:   dense  smooth     PW     G-vecs:    dense   smooth      PW
     Sum         793     793    235                14649    14649    2277

     Using Slab Decomposition



     bravais-lattice index     =            2
     lattice parameter (alat)  =      10.7074  a.u.
     unit-cell volume          =     306.8946 (a.u.)^3
     number of atoms/cell      =            2
     number of atomic types    =            2
     number of electrons       =        18.00
     number of Kohn-Sham states=           26
     kinetic-energy cutoff     =      50.0000  Ry
     charge density cutoff     =     200.0000  Ry
     scf convergence threshold =      1.0E-08
     mixing beta               =       0.3000
     number of iterations used =            8  plain     mixing
     Exchange-correlation= PBE
                           (   1   4   3   4   0   0   0)
     Non magnetic calculation with spin-orbit


     celldm(1)=  10.707376  celldm(2)=   0.000000  celldm(3)=   0.000000
     celldm(4)=   0.000000  celldm(5)=   0.000000  celldm(6)=   0.000000

     crystal axes: (cart. coord. in units of alat)
               a(1) = (  -0.500000   0.000000   0.500000 )  
               a(2) = (   0.000000   0.500000   0.500000 )  
               a(3) = (  -0.500000   0.500000   0.000000 )  

     reciprocal axes: (cart. coord. in units 2 pi/alat)
               b(1) = ( -1.000000 -1.000000  1.000000 )  
               b(2) = (  1.000000  1.000000  1.000000 )  
               b(3) = ( -1.000000  1.000000 -1.000000 )  


     PseudoPot. # 1 for As read from file:
     ../pseudopotential/As.rel-pbe-n-rrkjus_psl.0.2.UPF
     MD5 check sum: fd1d9cb43fef956eb1cdd0c60ce90062
     Pseudo is Ultrasoft + core correction, Zval =  5.0
     Generated using "atomic" code by A. Dal Corso  v.5.0.2 svn rev. 9415
     Using radial grid of 1209 points,  6 beta functions with: 
                l(1) =   0
                l(2) =   0
                l(3) =   1
                l(4) =   1
                l(5) =   1
                l(6) =   1
     Q(r) pseudized with 0 coefficients 


     PseudoPot. # 2 for Ga read from file:
     ../pseudopotential/Ga.rel-pbe-dn-rrkjus_psl.0.2.UPF
     MD5 check sum: b82f27152fdba9c8aaf7d704465ad383
     Pseudo is Ultrasoft + core correction, Zval = 13.0
     Generated using "atomic" code by A. Dal Corso  v.5.0.2 svn rev. 9415
     Using radial grid of 1205 points, 10 beta functions with: 
                l(1) =   0
                l(2) =   0
                l(3) =   1
                l(4) =   1
                l(5) =   1
                l(6) =   1
                l(7) =   2
                l(8) =   2
                l(9) =   2
               l(10) =   2
     Q(r) pseudized with 0 coefficients 


     atomic species   valence    mass     pseudopotential
        As             5.00    74.92160     As( 1.00)
        Ga            13.00    69.72000     Ga( 1.00)

     No symmetry found



   Cartesian axes

     site n.     atom                  positions (alat units)
         1           Ga  tau(   1) = (   0.0000000   0.0000000   0.0000000  )
         2           As  tau(   2) = (   0.2500000   0.2500000   0.2500000  )

     number of k points=     8  Gaussian smearing, width (Ry)=  0.0020
                       cart. coord. in units 2pi/alat
        k(    1) = (   0.0000000   0.0000000   0.0000000), wk =   0.1250000
        k(    2) = (   0.5000000  -0.5000000   0.5000000), wk =   0.1250000
        k(    3) = (  -0.5000000  -0.5000000  -0.5000000), wk =   0.1250000
        k(    4) = (   0.0000000  -1.0000000   0.0000000), wk =   0.1250000
        k(    5) = (   0.5000000   0.5000000  -0.5000000), wk =   0.1250000
        k(    6) = (   1.0000000   0.0000000   0.0000000), wk =   0.1250000
        k(    7) = (   0.0000000   0.0000000  -1.0000000), wk =   0.1250000
        k(    8) = (   0.5000000  -0.5000000  -0.5000000), wk =   0.1250000

     Dense  grid:    14649 G-vectors     FFT dimensions: (  36,  36,  36)

     Estimated max dynamical RAM per process >     185.44 MB

     Check: negative core charge=   -0.000007

     Initial potential from superposition of free atoms

     starting charge      17.9971, renormalised to      18.0000
     Starting wfcs are   26 randomized atomic wfcs

     total cpu time spent up to now is        1.3 secs

     Self-consistent Calculation

     iteration #  1     ecut=    50.00 Ry     beta= 0.30
     Davidson diagonalization with overlap
     ethr =  1.00E-02,  avg # of iterations =  3.5

     Threshold (ethr) on eigenvalues was too large:
     Diagonalizing with lowered threshold

     Davidson diagonalization with overlap
     ethr =  5.93E-04,  avg # of iterations =  1.1

     total cpu time spent up to now is        4.0 secs

     total energy              =    -190.82199390 Ry
     estimated scf accuracy    <       0.10781864 Ry

     iteration #  2     ecut=    50.00 Ry     beta= 0.30
     Davidson diagonalization with overlap
     ethr =  5.99E-04,  avg # of iterations =  1.1

     total cpu time spent up to now is        5.3 secs

     total energy              =    -190.82304538 Ry
     estimated scf accuracy    <       0.02889858 Ry

     iteration #  3     ecut=    50.00 Ry     beta= 0.30
     Davidson diagonalization with overlap
     ethr =  1.61E-04,  avg # of iterations =  1.6

     total cpu time spent up to now is        6.6 secs

     total energy              =    -190.82531475 Ry
     estimated scf accuracy    <       0.00518866 Ry

     iteration #  4     ecut=    50.00 Ry     beta= 0.30
     Davidson diagonalization with overlap
     ethr =  2.88E-05,  avg # of iterations =  1.9

     total cpu time spent up to now is        8.1 secs

     total energy              =    -190.82561221 Ry
     estimated scf accuracy    <       0.00017346 Ry

     iteration #  5     ecut=    50.00 Ry     beta= 0.30
     Davidson diagonalization with overlap
     ethr =  9.64E-07,  avg # of iterations =  3.8

     total cpu time spent up to now is        9.8 secs

     total energy              =    -190.82566181 Ry
     estimated scf accuracy    <       0.00002732 Ry

     iteration #  6     ecut=    50.00 Ry     beta= 0.30
     Davidson diagonalization with overlap
     ethr =  1.52E-07,  avg # of iterations =  2.0

     total cpu time spent up to now is       11.6 secs

     total energy              =    -190.82565882 Ry
     estimated scf accuracy    <       0.00001916 Ry

     iteration #  7     ecut=    50.00 Ry     beta= 0.30
     Davidson diagonalization with overlap
     ethr =  1.06E-07,  avg # of iterations =  2.0

     total cpu time spent up to now is       13.3 secs

     total energy              =    -190.82566403 Ry
     estimated scf accuracy    <       0.00000110 Ry

     iteration #  8     ecut=    50.00 Ry     beta= 0.30
     Davidson diagonalization with overlap
     ethr =  6.13E-09,  avg # of iterations =  1.6

     total cpu time spent up to now is       14.6 secs

     total energy              =    -190.82566420 Ry
     estimated scf accuracy    <       0.00000010 Ry

     iteration #  9     ecut=    50.00 Ry     beta= 0.30
     Davidson diagonalization with overlap
     ethr =  5.50E-10,  avg # of iterations =  2.0

     total cpu time spent up to now is       16.1 secs

     total energy              =    -190.82566402 Ry
     estimated scf accuracy    <       0.00000034 Ry

     iteration # 10     ecut=    50.00 Ry     beta= 0.30
     Davidson diagonalization with overlap
     ethr =  5.50E-10,  avg # of iterations =  2.0

     total cpu time spent up to now is       17.7 secs

     End of self-consistent calculation

          k = 0.0000 0.0000 0.0000 (  1837 PWs)   bands (ev):

    -8.3661  -8.3661  -8.3661  -8.3661  -7.9367  -7.9367  -7.8906  -7.8906
    -7.8906  -7.8906  -5.6572  -5.6572   6.8243   6.8243   7.1517   7.1517
     7.1517   7.1517   7.4552   7.4552  10.3979  10.3979  10.5920  10.5920
    10.5920  10.5920

          k = 0.5000-0.5000 0.5000 (  1850 PWs)   bands (ev):

    -8.3813  -8.3813  -8.3617  -8.3617  -7.9417  -7.9417  -7.9103  -7.9103
    -7.8721  -7.8721  -3.8717  -3.8717   0.2780   0.2780   5.7564   5.7564
     5.9582   5.9582   7.8941   7.8941  11.4142  11.4142  11.5064  11.5064
    14.7840  14.7840

          k =-0.5000-0.5000-0.5000 (  1850 PWs)   bands (ev):

    -8.3813  -8.3813  -8.3617  -8.3617  -7.9417  -7.9417  -7.9103  -7.9103
    -7.8721  -7.8721  -3.8717  -3.8717   0.2780   0.2780   5.7564   5.7564
     5.9582   5.9582   7.8941   7.8941  11.4142  11.4142  11.5064  11.5064
    14.7840  14.7840

          k = 0.0000-1.0000 0.0000 (  1804 PWs)   bands (ev):

    -8.3975  -8.3975  -8.3463  -8.3463  -7.9533  -7.9533  -7.8889  -7.8889
    -7.8726  -7.8726  -3.0924  -3.0924   0.0546   0.0546   4.2528   4.2528
     4.3288   4.3288   8.3465   8.3465   8.5627   8.5627  17.0124  17.0124
    17.0610  17.0610

          k = 0.5000 0.5000-0.5000 (  1850 PWs)   bands (ev):

    -8.3813  -8.3813  -8.3617  -8.3617  -7.9417  -7.9417  -7.9103  -7.9103
    -7.8721  -7.8721  -3.8717  -3.8717   0.2780   0.2780   5.7564   5.7564
     5.9582   5.9582   7.8941   7.8941  11.4142  11.4142  11.5064  11.5064
    14.7840  14.7840

          k = 1.0000 0.0000 0.0000 (  1804 PWs)   bands (ev):

    -8.3975  -8.3975  -8.3463  -8.3463  -7.9533  -7.9533  -7.8889  -7.8889
    -7.8726  -7.8726  -3.0924  -3.0924   0.0546   0.0546   4.2528   4.2528
     4.3288   4.3288   8.3465   8.3465   8.5627   8.5627  17.0124  17.0124
    17.0610  17.0610

          k = 0.0000 0.0000-1.0000 (  1804 PWs)   bands (ev):

    -8.3975  -8.3975  -8.3463  -8.3463  -7.9533  -7.9533  -7.8889  -7.8889
    -7.8726  -7.8726  -3.0924  -3.0924   0.0546   0.0546   4.2528   4.2528
     4.3288   4.3288   8.3465   8.3465   8.5627   8.5627  17.0124  17.0124
    17.0610  17.0610

          k = 0.5000-0.5000-0.5000 (  1850 PWs)   bands (ev):

    -8.3813  -8.3813  -8.3617  -8.3617  -7.9417  -7.9417  -7.9103  -7.9103
    -7.8721  -7.8721  -3.8717  -3.8717   0.2780   0.2780   5.7564   5.7564
     5.9582   5.9582   7.8941   7.8941  11.4142  11.4142  11.5064  11.5064
    14.7840  14.7840

     the Fermi energy is     7.2774 ev

!    total energy              =    -190.82566411 Ry
     estimated scf accuracy    <          2.9E-09 Ry
     smearing contrib. (-TS)   =      -0.00000000 Ry
     internal energy E=F+TS    =    -190.82566411 Ry

     The total energy is F=E-TS. E is the sum of the following terms:
     one-electron contribution =    -111.99741990 Ry
     hartree contribution      =      71.96850295 Ry
     xc contribution           =     -57.99017349 Ry
     ewald contribution        =     -92.80657367 Ry

     convergence has been achieved in  10 iterations

     Writing all to output data dir ./GaAs.save/

     init_run     :      2.70s CPU      0.96s WALL (       1 calls)
     electrons    :     85.74s CPU     16.43s WALL (       1 calls)

     Called by init_run:
     wfcinit      :      1.91s CPU      0.42s WALL (       1 calls)
     potinit      :      0.01s CPU      0.01s WALL (       1 calls)
     hinit0       :      0.46s CPU      0.46s WALL (       1 calls)

     Called by electrons:
     c_bands      :     63.52s CPU     12.11s WALL (      11 calls)
     sum_band     :     16.18s CPU      3.19s WALL (      11 calls)
     v_of_rho     :      0.89s CPU      0.17s WALL (      11 calls)
     newd         :      5.11s CPU      0.95s WALL (      11 calls)
     mix_rho      :      0.30s CPU      0.08s WALL (      11 calls)

     Called by c_bands:
     init_us_2    :      0.79s CPU      0.11s WALL (     184 calls)
     init_us_2:cp :      0.79s CPU      0.11s WALL (     184 calls)
     cegterg      :     59.58s CPU     11.47s WALL (      88 calls)

     Called by *egterg:
     cdiaghg      :      1.52s CPU      0.22s WALL (     261 calls)
     h_psi        :     47.57s CPU      9.80s WALL (     277 calls)
     s_psi        :      1.58s CPU      0.25s WALL (     277 calls)
     g_psi        :      0.39s CPU      0.04s WALL (     181 calls)

     Called by h_psi:
     h_psi:calbec :      2.87s CPU      0.54s WALL (     277 calls)
     vloc_psi     :     43.31s CPU      8.99s WALL (     277 calls)
     add_vuspsi   :      1.10s CPU      0.23s WALL (     277 calls)

     General routines
     calbec       :      4.01s CPU      0.77s WALL (     365 calls)
     fft          :      0.61s CPU      0.10s WALL (     185 calls)
     ffts         :      0.14s CPU      0.03s WALL (      44 calls)
     fftw         :     45.27s CPU      9.38s WALL (   26956 calls)


     PWSCF        :   1m30.02s CPU     17.77s WALL


   This run was terminated on:  16:28: 1  12May2024            

=------------------------------------------------------------------------------=
   JOB DONE.
=------------------------------------------------------------------------------=
