
     Program PWSCF v.7.2 starts on 12May2024 at 16:27:12 

     This program is part of the open-source Quantum ESPRESSO suite
     for quantum simulation of materials; please cite
         "P. Giannozzi et al., J. Phys.:Condens. Matter 21 395502 (2009);
         "P. Giannozzi et al., J. Phys.:Condens. Matter 29 465901 (2017);
         "P. Giannozzi et al., J. Chem. Phys. 152 154105 (2020);
          URL http://www.quantum-espresso.org", 
     in publications or presentations arising from this work. More details at
     http://www.quantum-espresso.org/quote

     Serial version
     0 MiB available memory on the printing compute node when the environment starts

     Waiting for input...
     Reading input from standard input

     Current dimensions of program PWSCF are:
     Max number of different atomic species (ntypx) = 10
     Max number of k-points (npk) =  40000
     Max angular momentum in pseudopotentials (lmaxx) =  4
     file Ga.rel-pbe-dn-rrkjus_psl.0.2.UPF: wavefunction(s)  4S 3D 3D renormalized


     G-vector sticks info
     --------------------
     sticks:   dense  smooth     PW     G-vecs:    dense   smooth      PW
     Sum         793     313     97                14649     3719     645

     Using Slab Decomposition



     bravais-lattice index     =            2
     lattice parameter (alat)  =      10.7074  a.u.
     unit-cell volume          =     306.8946 (a.u.)^3
     number of atoms/cell      =            2
     number of atomic types    =            2
     number of electrons       =        18.00
     number of Kohn-Sham states=           26
     kinetic-energy cutoff     =      20.0000  Ry
     charge density cutoff     =     200.0000  Ry
     scf convergence threshold =      1.0E-08
     mixing beta               =       0.3000
     number of iterations used =            8  plain     mixing
     Exchange-correlation= PBE
                           (   1   4   3   4   0   0   0)
     Non magnetic calculation with spin-orbit


     celldm(1)=  10.707376  celldm(2)=   0.000000  celldm(3)=   0.000000
     celldm(4)=   0.000000  celldm(5)=   0.000000  celldm(6)=   0.000000

     crystal axes: (cart. coord. in units of alat)
               a(1) = (  -0.500000   0.000000   0.500000 )  
               a(2) = (   0.000000   0.500000   0.500000 )  
               a(3) = (  -0.500000   0.500000   0.000000 )  

     reciprocal axes: (cart. coord. in units 2 pi/alat)
               b(1) = ( -1.000000 -1.000000  1.000000 )  
               b(2) = (  1.000000  1.000000  1.000000 )  
               b(3) = ( -1.000000  1.000000 -1.000000 )  


     PseudoPot. # 1 for As read from file:
     ../pseudopotential/As.rel-pbe-n-rrkjus_psl.0.2.UPF
     MD5 check sum: fd1d9cb43fef956eb1cdd0c60ce90062
     Pseudo is Ultrasoft + core correction, Zval =  5.0
     Generated using "atomic" code by A. Dal Corso  v.5.0.2 svn rev. 9415
     Using radial grid of 1209 points,  6 beta functions with: 
                l(1) =   0
                l(2) =   0
                l(3) =   1
                l(4) =   1
                l(5) =   1
                l(6) =   1
     Q(r) pseudized with 0 coefficients 


     PseudoPot. # 2 for Ga read from file:
     ../pseudopotential/Ga.rel-pbe-dn-rrkjus_psl.0.2.UPF
     MD5 check sum: b82f27152fdba9c8aaf7d704465ad383
     Pseudo is Ultrasoft + core correction, Zval = 13.0
     Generated using "atomic" code by A. Dal Corso  v.5.0.2 svn rev. 9415
     Using radial grid of 1205 points, 10 beta functions with: 
                l(1) =   0
                l(2) =   0
                l(3) =   1
                l(4) =   1
                l(5) =   1
                l(6) =   1
                l(7) =   2
                l(8) =   2
                l(9) =   2
               l(10) =   2
     Q(r) pseudized with 0 coefficients 


     atomic species   valence    mass     pseudopotential
        As             5.00    74.92160     As( 1.00)
        Ga            13.00    69.72000     Ga( 1.00)

     No symmetry found



   Cartesian axes

     site n.     atom                  positions (alat units)
         1           Ga  tau(   1) = (   0.0000000   0.0000000   0.0000000  )
         2           As  tau(   2) = (   0.2500000   0.2500000   0.2500000  )

     number of k points=     8  Gaussian smearing, width (Ry)=  0.0020
                       cart. coord. in units 2pi/alat
        k(    1) = (   0.0000000   0.0000000   0.0000000), wk =   0.1250000
        k(    2) = (   0.5000000  -0.5000000   0.5000000), wk =   0.1250000
        k(    3) = (  -0.5000000  -0.5000000  -0.5000000), wk =   0.1250000
        k(    4) = (   0.0000000  -1.0000000   0.0000000), wk =   0.1250000
        k(    5) = (   0.5000000   0.5000000  -0.5000000), wk =   0.1250000
        k(    6) = (   1.0000000   0.0000000   0.0000000), wk =   0.1250000
        k(    7) = (   0.0000000   0.0000000  -1.0000000), wk =   0.1250000
        k(    8) = (   0.5000000  -0.5000000  -0.5000000), wk =   0.1250000

     Dense  grid:    14649 G-vectors     FFT dimensions: (  36,  36,  36)

     Smooth grid:     3719 G-vectors     FFT dimensions: (  24,  24,  24)

     Estimated max dynamical RAM per process >     174.59 MB

     Check: negative core charge=   -0.000007

     Initial potential from superposition of free atoms

     starting charge      17.9971, renormalised to      18.0000
     Starting wfcs are   26 randomized atomic wfcs

     total cpu time spent up to now is        1.0 secs

     Self-consistent Calculation

     iteration #  1     ecut=    20.00 Ry     beta= 0.30
     Davidson diagonalization with overlap
     ethr =  1.00E-02,  avg # of iterations =  3.5

     Threshold (ethr) on eigenvalues was too large:
     Diagonalizing with lowered threshold

     Davidson diagonalization with overlap
     ethr =  7.25E-04,  avg # of iterations =  1.0

     total cpu time spent up to now is        2.0 secs

     total energy              =    -190.48763261 Ry
     estimated scf accuracy    <       0.13843089 Ry

     iteration #  2     ecut=    20.00 Ry     beta= 0.30
     Davidson diagonalization with overlap
     ethr =  7.69E-04,  avg # of iterations =  1.0

     total cpu time spent up to now is        2.6 secs

     total energy              =    -190.49226641 Ry
     estimated scf accuracy    <       0.03036801 Ry

     iteration #  3     ecut=    20.00 Ry     beta= 0.30
     Davidson diagonalization with overlap
     ethr =  1.69E-04,  avg # of iterations =  1.5

     total cpu time spent up to now is        3.1 secs

     total energy              =    -190.49497058 Ry
     estimated scf accuracy    <       0.00570496 Ry

     iteration #  4     ecut=    20.00 Ry     beta= 0.30
     Davidson diagonalization with overlap
     ethr =  3.17E-05,  avg # of iterations =  1.5

     total cpu time spent up to now is        3.6 secs

     total energy              =    -190.49534224 Ry
     estimated scf accuracy    <       0.00009473 Ry

     iteration #  5     ecut=    20.00 Ry     beta= 0.30
     Davidson diagonalization with overlap
     ethr =  5.26E-07,  avg # of iterations =  3.8

     total cpu time spent up to now is        4.2 secs

     total energy              =    -190.49537426 Ry
     estimated scf accuracy    <       0.00002893 Ry

     iteration #  6     ecut=    20.00 Ry     beta= 0.30
     Davidson diagonalization with overlap
     ethr =  1.61E-07,  avg # of iterations =  2.0

     total cpu time spent up to now is        4.8 secs

     total energy              =    -190.49538030 Ry
     estimated scf accuracy    <       0.00000338 Ry

     iteration #  7     ecut=    20.00 Ry     beta= 0.30
     Davidson diagonalization with overlap
     ethr =  1.88E-08,  avg # of iterations =  2.0

     total cpu time spent up to now is        5.3 secs

     total energy              =    -190.49538074 Ry
     estimated scf accuracy    <       0.00000030 Ry

     iteration #  8     ecut=    20.00 Ry     beta= 0.30
     Davidson diagonalization with overlap
     ethr =  1.69E-09,  avg # of iterations =  2.0

     total cpu time spent up to now is        6.0 secs

     total energy              =    -190.49538085 Ry
     estimated scf accuracy    <       0.00000002 Ry

     iteration #  9     ecut=    20.00 Ry     beta= 0.30
     Davidson diagonalization with overlap
     ethr =  1.21E-10,  avg # of iterations =  2.0

     total cpu time spent up to now is        6.7 secs

     End of self-consistent calculation

          k = 0.0000 0.0000 0.0000 (   459 PWs)   bands (ev):

    -8.7679  -8.7679  -8.7679  -8.7679  -8.3462  -8.3462  -8.2641  -8.2641
    -8.2641  -8.2641  -5.6378  -5.6378   6.8197   6.8197   7.1471   7.1471
     7.1471   7.1471   7.4586   7.4586  10.4424  10.4424  10.6359  10.6359
    10.6359  10.6359

          k = 0.5000-0.5000 0.5000 (   464 PWs)   bands (ev):

    -8.8744  -8.8744  -8.8270  -8.8270  -8.4436  -8.4436  -8.3358  -8.3358
    -8.2381  -8.2381  -3.8798  -3.8798   0.2949   0.2949   5.7675   5.7675
     5.9694   5.9694   7.8976   7.8976  11.4348  11.4348  11.5267  11.5267
    14.7740  14.7740

          k =-0.5000-0.5000-0.5000 (   464 PWs)   bands (ev):

    -8.8744  -8.8744  -8.8270  -8.8270  -8.4436  -8.4436  -8.3358  -8.3358
    -8.2381  -8.2381  -3.8798  -3.8798   0.2949   0.2949   5.7675   5.7675
     5.9694   5.9694   7.8976   7.8976  11.4348  11.4348  11.5267  11.5267
    14.7740  14.7740

          k = 0.0000-1.0000 0.0000 (   468 PWs)   bands (ev):

    -8.8978  -8.8978  -8.8527  -8.8527  -8.4347  -8.4347  -8.3938  -8.3938
    -8.3237  -8.3237  -3.1035  -3.1035   0.0690   0.0690   4.2718   4.2718
     4.3487   4.3487   8.3458   8.3458   8.5568   8.5568  17.0384  17.0384
    17.0885  17.0885

          k = 0.5000 0.5000-0.5000 (   464 PWs)   bands (ev):

    -8.8744  -8.8744  -8.8270  -8.8270  -8.4436  -8.4436  -8.3358  -8.3358
    -8.2381  -8.2381  -3.8798  -3.8798   0.2949   0.2949   5.7675   5.7675
     5.9694   5.9694   7.8976   7.8976  11.4348  11.4348  11.5267  11.5267
    14.7740  14.7740

          k = 1.0000 0.0000 0.0000 (   468 PWs)   bands (ev):

    -8.8978  -8.8978  -8.8527  -8.8527  -8.4347  -8.4347  -8.3938  -8.3938
    -8.3237  -8.3237  -3.1035  -3.1035   0.0690   0.0690   4.2718   4.2718
     4.3487   4.3487   8.3458   8.3458   8.5568   8.5568  17.0384  17.0384
    17.0885  17.0885

          k = 0.0000 0.0000-1.0000 (   468 PWs)   bands (ev):

    -8.8978  -8.8978  -8.8527  -8.8527  -8.4347  -8.4347  -8.3938  -8.3938
    -8.3237  -8.3237  -3.1035  -3.1035   0.0690   0.0690   4.2718   4.2718
     4.3487   4.3487   8.3458   8.3458   8.5568   8.5568  17.0384  17.0384
    17.0885  17.0885

          k = 0.5000-0.5000-0.5000 (   464 PWs)   bands (ev):

    -8.8744  -8.8744  -8.8270  -8.8270  -8.4436  -8.4436  -8.3358  -8.3358
    -8.2381  -8.2381  -3.8798  -3.8798   0.2949   0.2949   5.7675   5.7675
     5.9694   5.9694   7.8976   7.8976  11.4348  11.4348  11.5267  11.5267
    14.7740  14.7740

     the Fermi energy is     7.3081 ev

!    total energy              =    -190.49538091 Ry
     estimated scf accuracy    <          8.7E-09 Ry
     smearing contrib. (-TS)   =      -0.00000000 Ry
     internal energy E=F+TS    =    -190.49538091 Ry

     The total energy is F=E-TS. E is the sum of the following terms:
     one-electron contribution =    -111.17973546 Ry
     hartree contribution      =      71.29419342 Ry
     xc contribution           =     -57.80326520 Ry
     ewald contribution        =     -92.80657367 Ry

     convergence has been achieved in   9 iterations

     Writing all to output data dir ./GaAs.save/

     init_run     :      1.48s CPU      0.67s WALL (       1 calls)
     electrons    :     29.37s CPU      5.66s WALL (       1 calls)

     Called by init_run:
     wfcinit      :      0.70s CPU      0.15s WALL (       1 calls)
     potinit      :      0.02s CPU      0.02s WALL (       1 calls)
     hinit0       :      0.41s CPU      0.42s WALL (       1 calls)

     Called by electrons:
     c_bands      :     18.22s CPU      3.34s WALL (      10 calls)
     sum_band     :      7.75s CPU      1.45s WALL (      10 calls)
     v_of_rho     :      0.41s CPU      0.16s WALL (      10 calls)
     newd         :      3.01s CPU      0.71s WALL (      10 calls)
     mix_rho      :      0.14s CPU      0.04s WALL (      10 calls)

     Called by c_bands:
     init_us_2    :      0.17s CPU      0.02s WALL (     168 calls)
     init_us_2:cp :      0.17s CPU      0.02s WALL (     168 calls)
     cegterg      :     17.33s CPU      3.19s WALL (      80 calls)

     Called by *egterg:
     cdiaghg      :      0.78s CPU      0.14s WALL (     234 calls)
     h_psi        :     14.76s CPU      2.86s WALL (     250 calls)
     s_psi        :      0.36s CPU      0.07s WALL (     250 calls)
     g_psi        :      0.03s CPU      0.01s WALL (     162 calls)

     Called by h_psi:
     h_psi:calbec :      0.44s CPU      0.11s WALL (     250 calls)
     vloc_psi     :     13.98s CPU      2.68s WALL (     250 calls)
     add_vuspsi   :      0.29s CPU      0.06s WALL (     250 calls)

     General routines
     calbec       :      0.59s CPU      0.14s WALL (     330 calls)
     fft          :      0.36s CPU      0.13s WALL (     240 calls)
     ffts         :      0.05s CPU      0.01s WALL (      80 calls)
     fftw         :     13.23s CPU      2.45s WALL (   24152 calls)
     interpolate  :      0.08s CPU      0.03s WALL (      40 calls)


     PWSCF        :     32.16s CPU      6.70s WALL


   This run was terminated on:  16:27:18  12May2024            

=------------------------------------------------------------------------------=
   JOB DONE.
=------------------------------------------------------------------------------=
