
     Program PWSCF v.7.2 starts on 12May2024 at 19: 9:42 

     This program is part of the open-source Quantum ESPRESSO suite
     for quantum simulation of materials; please cite
         "P. Giannozzi et al., J. Phys.:Condens. Matter 21 395502 (2009);
         "P. Giannozzi et al., J. Phys.:Condens. Matter 29 465901 (2017);
         "P. Giannozzi et al., J. Chem. Phys. 152 154105 (2020);
          URL http://www.quantum-espresso.org", 
     in publications or presentations arising from this work. More details at
     http://www.quantum-espresso.org/quote

     Serial version
     0 MiB available memory on the printing compute node when the environment starts

     Waiting for input...
     Reading input from standard input

     Current dimensions of program PWSCF are:
     Max number of different atomic species (ntypx) = 10
     Max number of k-points (npk) =  40000
     Max angular momentum in pseudopotentials (lmaxx) =  4
     file Ga.rel-pbe-dn-rrkjus_psl.0.2.UPF: wavefunction(s)  4S 3D 3D renormalized


     G-vector sticks info
     --------------------
     sticks:   dense  smooth     PW     G-vecs:    dense   smooth      PW
     Sum        1639     817    253                43599    15353    2733

     Using Slab Decomposition



     bravais-lattice index     =            2
     lattice parameter (alat)  =      10.8772  a.u.
     unit-cell volume          =     321.7262 (a.u.)^3
     number of atoms/cell      =            2
     number of atomic types    =            2
     number of electrons       =        18.00
     number of Kohn-Sham states=           26
     kinetic-energy cutoff     =      50.0000  Ry
     charge density cutoff     =     400.0000  Ry
     scf convergence threshold =      1.0E-08
     mixing beta               =       0.3000
     number of iterations used =            8  plain     mixing
     energy convergence thresh.=      1.0E-04
     force convergence thresh. =      1.0E-03
     press convergence thresh. =      5.0E-01
     Exchange-correlation= PBE
                           (   1   4   3   4   0   0   0)
     nstep                     =           50

     Non magnetic calculation with spin-orbit


     celldm(1)=  10.877158  celldm(2)=   0.000000  celldm(3)=   0.000000
     celldm(4)=   0.000000  celldm(5)=   0.000000  celldm(6)=   0.000000

     crystal axes: (cart. coord. in units of alat)
               a(1) = (  -0.500000   0.000000   0.500000 )  
               a(2) = (   0.000000   0.500000   0.500000 )  
               a(3) = (  -0.500000   0.500000   0.000000 )  

     reciprocal axes: (cart. coord. in units 2 pi/alat)
               b(1) = ( -1.000000 -1.000000  1.000000 )  
               b(2) = (  1.000000  1.000000  1.000000 )  
               b(3) = ( -1.000000  1.000000 -1.000000 )  


     PseudoPot. # 1 for As read from file:
     ../../pseudopotential/As.rel-pbe-n-rrkjus_psl.0.2.UPF
     MD5 check sum: fd1d9cb43fef956eb1cdd0c60ce90062
     Pseudo is Ultrasoft + core correction, Zval =  5.0
     Generated using "atomic" code by A. Dal Corso  v.5.0.2 svn rev. 9415
     Using radial grid of 1209 points,  6 beta functions with: 
                l(1) =   0
                l(2) =   0
                l(3) =   1
                l(4) =   1
                l(5) =   1
                l(6) =   1
     Q(r) pseudized with 0 coefficients 


     PseudoPot. # 2 for Ga read from file:
     ../../pseudopotential/Ga.rel-pbe-dn-rrkjus_psl.0.2.UPF
     MD5 check sum: b82f27152fdba9c8aaf7d704465ad383
     Pseudo is Ultrasoft + core correction, Zval = 13.0
     Generated using "atomic" code by A. Dal Corso  v.5.0.2 svn rev. 9415
     Using radial grid of 1205 points, 10 beta functions with: 
                l(1) =   0
                l(2) =   0
                l(3) =   1
                l(4) =   1
                l(5) =   1
                l(6) =   1
                l(7) =   2
                l(8) =   2
                l(9) =   2
               l(10) =   2
     Q(r) pseudized with 0 coefficients 


     atomic species   valence    mass     pseudopotential
        As             5.00    74.92160     As( 1.00)
        Ga            13.00    69.72000     Ga( 1.00)

     No symmetry found



   Cartesian axes

     site n.     atom                  positions (alat units)
         1           Ga  tau(   1) = (   0.0000000   0.0000000   0.0000000  )
         2           As  tau(   2) = (  -0.2500000   0.2500000   0.2500000  )

     number of k points=   260  Gaussian smearing, width (Ry)=  0.0020

     Number of k-points >= 100: set verbosity='high' to print them.

     Dense  grid:    43599 G-vectors     FFT dimensions: (  50,  50,  50)

     Smooth grid:    15353 G-vectors     FFT dimensions: (  36,  36,  36)

     Estimated max dynamical RAM per process >     915.89 MB

     Initial potential from superposition of free atoms

     starting charge      17.9971, renormalised to      18.0000
     Starting wfcs are   26 randomized atomic wfcs

     total cpu time spent up to now is       19.1 secs

     Self-consistent Calculation

     iteration #  1     ecut=    50.00 Ry     beta= 0.30
     Davidson diagonalization with overlap
     ethr =  1.00E-02,  avg # of iterations =  3.9

     Threshold (ethr) on eigenvalues was too large:
     Diagonalizing with lowered threshold

     Davidson diagonalization with overlap
     ethr =  2.50E-04,  avg # of iterations =  2.3

     total cpu time spent up to now is      111.8 secs

     total energy              =    -191.00426951 Ry
     estimated scf accuracy    <       0.04490182 Ry

     iteration #  2     ecut=    50.00 Ry     beta= 0.30
     Davidson diagonalization with overlap
     ethr =  2.49E-04,  avg # of iterations =  1.1

     total cpu time spent up to now is      152.5 secs

     total energy              =    -191.00485969 Ry
     estimated scf accuracy    <       0.01240398 Ry

     iteration #  3     ecut=    50.00 Ry     beta= 0.30
     Davidson diagonalization with overlap
     ethr =  6.89E-05,  avg # of iterations =  1.5

     total cpu time spent up to now is      190.0 secs

     total energy              =    -191.00549271 Ry
     estimated scf accuracy    <       0.00227399 Ry

     iteration #  4     ecut=    50.00 Ry     beta= 0.30
     Davidson diagonalization with overlap
     ethr =  1.26E-05,  avg # of iterations =  1.9

     total cpu time spent up to now is      228.3 secs

     total energy              =    -191.00559103 Ry
     estimated scf accuracy    <       0.00005435 Ry

     iteration #  5     ecut=    50.00 Ry     beta= 0.30
     Davidson diagonalization with overlap
     ethr =  3.02E-07,  avg # of iterations =  3.1

     total cpu time spent up to now is      285.7 secs

     total energy              =    -191.00561419 Ry
     estimated scf accuracy    <       0.00002152 Ry

     iteration #  6     ecut=    50.00 Ry     beta= 0.30
     Davidson diagonalization with overlap
     ethr =  1.20E-07,  avg # of iterations =  1.0

     total cpu time spent up to now is      322.0 secs

     total energy              =    -191.00561147 Ry
     estimated scf accuracy    <       0.00000619 Ry

     iteration #  7     ecut=    50.00 Ry     beta= 0.30
     Davidson diagonalization with overlap
     ethr =  3.44E-08,  avg # of iterations =  2.0

     total cpu time spent up to now is      369.2 secs

     total energy              =    -191.00561378 Ry
     estimated scf accuracy    <       0.00000081 Ry

     iteration #  8     ecut=    50.00 Ry     beta= 0.30
     Davidson diagonalization with overlap
     ethr =  4.51E-09,  avg # of iterations =  1.0

     total cpu time spent up to now is      407.0 secs

     total energy              =    -191.00561358 Ry
     estimated scf accuracy    <       0.00000041 Ry

     iteration #  9     ecut=    50.00 Ry     beta= 0.30
     Davidson diagonalization with overlap
     ethr =  2.28E-09,  avg # of iterations =  2.0

     total cpu time spent up to now is      452.9 secs

     total energy              =    -191.00561362 Ry
     estimated scf accuracy    <       0.00000003 Ry

     iteration # 10     ecut=    50.00 Ry     beta= 0.30
     Davidson diagonalization with overlap
     ethr =  1.63E-10,  avg # of iterations =  2.0

     total cpu time spent up to now is      501.2 secs

     End of self-consistent calculation

     Number of k-points >= 100: set verbosity='high' to print the bands.

     the Fermi energy is     6.2640 ev

!    total energy              =    -191.00561362 Ry
     estimated scf accuracy    <          2.2E-10 Ry
     smearing contrib. (-TS)   =      -0.00000503 Ry
     internal energy E=F+TS    =    -191.00560860 Ry

     The total energy is F=E-TS. E is the sum of the following terms:
     one-electron contribution =    -114.43638691 Ry
     hartree contribution      =      72.64562869 Ry
     xc contribution           =     -57.85689842 Ry
     ewald contribution        =     -91.35795196 Ry

     convergence has been achieved in  10 iterations

     Forces acting on atoms (cartesian axes, Ry/au):

     atom    1 type  2   force =     0.00000002   -0.00000000   -0.00000002
     atom    2 type  1   force =    -0.00000002    0.00000000    0.00000002
     The non-local contrib.  to forces
     atom    1 type  2   force =     0.00000001   -0.00000001   -0.00000002
     atom    2 type  1   force =     0.00000001   -0.00000001    0.00000001
     The ionic contribution  to forces
     atom    1 type  2   force =     0.00000000   -0.00000000    0.00000000
     atom    2 type  1   force =    -0.00000000    0.00000000    0.00000000
     The local contribution  to forces
     atom    1 type  2   force =    -0.00000003   -0.00000001    0.00000001
     atom    2 type  1   force =    -0.00000002    0.00000002   -0.00000002
     The core correction contribution to forces
     atom    1 type  2   force =    -0.00000000   -0.00000000   -0.00000000
     atom    2 type  1   force =    -0.00000000    0.00000000   -0.00000000
     The Hubbard contrib.    to forces
     atom    1 type  2   force =     0.00000000    0.00000000    0.00000000
     atom    2 type  1   force =     0.00000000    0.00000000    0.00000000
     The SCF correction term to forces
     atom    1 type  2   force =     0.00000005    0.00000001   -0.00000004
     atom    2 type  1   force =     0.00000001   -0.00000001    0.00000002

     Total force =     0.000000     Total SCF correction =     0.000000
     SCF correction compared to forces is large: reduce conv_thr to get better values


     Computing stress (Cartesian axis) and pressure

          total   stress  (Ry/bohr**3)                   (kbar)     P=       -2.10
  -0.00001425   0.00000000  -0.00000000           -2.10        0.00       -0.00
   0.00000000  -0.00001425  -0.00000000            0.00       -2.10       -0.00
  -0.00000000  -0.00000000  -0.00001425           -0.00       -0.00       -2.10


     BFGS Geometry Optimization
     Energy error            =      0.0E+00 Ry
     Gradient error          =      1.6E-08 Ry/Bohr
     Cell gradient error     =      2.1E+00 kbar

     number of scf cycles    =   1
     number of bfgs steps    =   0

     enthalpy           new  =    -191.0056136244 Ry

     new trust radius        =       0.0012778227 bohr
     new conv_thr            =       0.0000000100 Ry

     new unit-cell volume =    321.38248 a.u.^3 (    47.62397 Ang^3 )
     density =      5.04332 g/cm^3

CELL_PARAMETERS (alat= 10.87715844)
  -0.499821899  -0.000000001   0.499821900
   0.000000001   0.499821899   0.499821899
  -0.499821898   0.499821898  -0.000000000

ATOMIC_POSITIONS (crystal)
Ga           -0.0000000026       -0.0000000004       -0.0000000002
As            0.2500000026        0.2500000004        0.2500000002



     Writing config-only to output data dir ./GaAs.save/
     NEW-OLD atomic charge density approx. for the potential
     extrapolated charge   17.98075, renormalised to   18.00000

     total cpu time spent up to now is      531.7 secs

     Self-consistent Calculation

     iteration #  1     ecut=    50.00 Ry     beta= 0.30
     Davidson diagonalization with overlap
     ethr =  1.00E-06,  avg # of iterations =  2.0

     total cpu time spent up to now is      586.9 secs

     total energy              =    -191.00545027 Ry
     estimated scf accuracy    <       0.00014033 Ry

     iteration #  2     ecut=    50.00 Ry     beta= 0.30
     Davidson diagonalization with overlap
     ethr =  7.80E-07,  avg # of iterations =  3.0

     total cpu time spent up to now is      636.1 secs

     total energy              =    -191.00562531 Ry
     estimated scf accuracy    <       0.00006184 Ry

     iteration #  3     ecut=    50.00 Ry     beta= 0.30
     Davidson diagonalization with overlap
     ethr =  3.44E-07,  avg # of iterations =  1.0

     total cpu time spent up to now is      673.8 secs

     total energy              =    -191.00561918 Ry
     estimated scf accuracy    <       0.00002485 Ry

     iteration #  4     ecut=    50.00 Ry     beta= 0.30
     Davidson diagonalization with overlap
     ethr =  1.38E-07,  avg # of iterations =  1.0

     total cpu time spent up to now is      713.2 secs

     total energy              =    -191.00561872 Ry
     estimated scf accuracy    <       0.00000769 Ry

     iteration #  5     ecut=    50.00 Ry     beta= 0.30
     Davidson diagonalization with overlap
     ethr =  4.27E-08,  avg # of iterations =  1.0

     total cpu time spent up to now is      749.8 secs

     total energy              =    -191.00561822 Ry
     estimated scf accuracy    <       0.00000381 Ry

     iteration #  6     ecut=    50.00 Ry     beta= 0.30
     Davidson diagonalization with overlap
     ethr =  2.12E-08,  avg # of iterations =  1.0

     total cpu time spent up to now is      787.1 secs

     total energy              =    -191.00561672 Ry
     estimated scf accuracy    <       0.00000219 Ry

     iteration #  7     ecut=    50.00 Ry     beta= 0.30
     Davidson diagonalization with overlap
     ethr =  1.22E-08,  avg # of iterations =  2.0

     total cpu time spent up to now is      834.1 secs

     total energy              =    -191.00561741 Ry
     estimated scf accuracy    <       0.00000007 Ry

     iteration #  8     ecut=    50.00 Ry     beta= 0.30
     Davidson diagonalization with overlap
     ethr =  3.69E-10,  avg # of iterations =  1.0

     total cpu time spent up to now is      869.8 secs

     total energy              =    -191.00561740 Ry
     estimated scf accuracy    <       0.00000001 Ry

     iteration #  9     ecut=    50.00 Ry     beta= 0.30
     Davidson diagonalization with overlap
     ethr =  8.23E-11,  avg # of iterations =  2.0

     total cpu time spent up to now is      915.9 secs

     End of self-consistent calculation

     Number of k-points >= 100: set verbosity='high' to print the bands.

     the Fermi energy is     6.2796 ev

!    total energy              =    -191.00561741 Ry
     estimated scf accuracy    <          2.3E-09 Ry
     smearing contrib. (-TS)   =      -0.00000437 Ry
     internal energy E=F+TS    =    -191.00561304 Ry

     The total energy is F=E-TS. E is the sum of the following terms:
     one-electron contribution =    -114.38342517 Ry
     hartree contribution      =      72.62624867 Ry
     xc contribution           =     -57.85793110 Ry
     ewald contribution        =     -91.39050544 Ry

     convergence has been achieved in   9 iterations

     Forces acting on atoms (cartesian axes, Ry/au):

     atom    1 type  2   force =     0.00000000    0.00000001   -0.00000001
     atom    2 type  1   force =    -0.00000000   -0.00000001    0.00000001
     The non-local contrib.  to forces
     atom    1 type  2   force =     0.00000001    0.00000001   -0.00000001
     atom    2 type  1   force =    -0.00000000    0.00000000    0.00000000
     The ionic contribution  to forces
     atom    1 type  2   force =    -0.00000004    0.00000002    0.00000002
     atom    2 type  1   force =     0.00000004   -0.00000002   -0.00000002
     The local contribution  to forces
     atom    1 type  2   force =     0.00000004   -0.00000002    0.00000000
     atom    2 type  1   force =    -0.00000003    0.00000002    0.00000001
     The core correction contribution to forces
     atom    1 type  2   force =     0.00000000   -0.00000000    0.00000000
     atom    2 type  1   force =     0.00000000    0.00000000   -0.00000000
     The Hubbard contrib.    to forces
     atom    1 type  2   force =     0.00000000    0.00000000    0.00000000
     atom    2 type  1   force =     0.00000000    0.00000000    0.00000000
     The SCF correction term to forces
     atom    1 type  2   force =     0.00000001    0.00000000   -0.00000003
     atom    2 type  1   force =    -0.00000000    0.00000000    0.00000000

     Total force =     0.000000     Total SCF correction =     0.000000
     SCF correction compared to forces is large: reduce conv_thr to get better values


     Computing stress (Cartesian axis) and pressure

          total   stress  (Ry/bohr**3)                   (kbar)     P=       -2.03
  -0.00001379  -0.00000000   0.00000000           -2.03       -0.00        0.00
  -0.00000000  -0.00001379   0.00000000           -0.00       -2.03        0.00
   0.00000000   0.00000000  -0.00001379            0.00        0.00       -2.03

     Energy error            =      3.8E-06 Ry
     Gradient error          =      6.8E-09 Ry/Bohr
     Cell gradient error     =      2.0E+00 kbar

     number of scf cycles    =   2
     number of bfgs steps    =   1

     enthalpy           old  =    -191.0056136244 Ry
     enthalpy           new  =    -191.0056174058 Ry

     CASE: enthalpy          _new < enthalpy          _old


     WARNING: bfgs curvature condition failed, Theta= 0.827
     new trust radius        =       0.0019163927 bohr
     new conv_thr            =            1.0E-10 Ry

     new unit-cell volume =    320.86743 a.u.^3 (    47.54765 Ang^3 )
     density =      5.05142 g/cm^3

CELL_PARAMETERS (alat= 10.87715844)
  -0.499554747  -0.000000001   0.499554748
   0.000000001   0.499554747   0.499554748
  -0.499554745   0.499554746  -0.000000000

ATOMIC_POSITIONS (crystal)
Ga           -0.0000000057       -0.0000000006        0.0000000004
As            0.2500000057        0.2500000006        0.2499999996



     Writing config-only to output data dir ./GaAs.save/
     NEW-OLD atomic charge density approx. for the potential
     extrapolated charge   17.97111, renormalised to   18.00000

     total cpu time spent up to now is      947.5 secs

     Self-consistent Calculation

     iteration #  1     ecut=    50.00 Ry     beta= 0.30
     Davidson diagonalization with overlap
     ethr =  1.00E-06,  avg # of iterations =  2.0

     total cpu time spent up to now is     1001.1 secs

     total energy              =    -191.00524441 Ry
     estimated scf accuracy    <       0.00031642 Ry

     iteration #  2     ecut=    50.00 Ry     beta= 0.30
     Davidson diagonalization with overlap
     ethr =  1.76E-06,  avg # of iterations =  3.0

     total cpu time spent up to now is     1056.6 secs

     total energy              =    -191.00563808 Ry
     estimated scf accuracy    <       0.00013857 Ry

     iteration #  3     ecut=    50.00 Ry     beta= 0.30
     Davidson diagonalization with overlap
     ethr =  7.70E-07,  avg # of iterations =  1.0

     total cpu time spent up to now is     1095.7 secs

     total energy              =    -191.00562474 Ry
     estimated scf accuracy    <       0.00005535 Ry

     iteration #  4     ecut=    50.00 Ry     beta= 0.30
     Davidson diagonalization with overlap
     ethr =  3.08E-07,  avg # of iterations =  1.0

     total cpu time spent up to now is     1132.1 secs

     total energy              =    -191.00562328 Ry
     estimated scf accuracy    <       0.00001759 Ry

     iteration #  5     ecut=    50.00 Ry     beta= 0.30
     Davidson diagonalization with overlap
     ethr =  9.77E-08,  avg # of iterations =  1.0

     total cpu time spent up to now is     1171.2 secs

     total energy              =    -191.00562246 Ry
     estimated scf accuracy    <       0.00000826 Ry

     iteration #  6     ecut=    50.00 Ry     beta= 0.30
     Davidson diagonalization with overlap
     ethr =  4.59E-08,  avg # of iterations =  1.0

     total cpu time spent up to now is     1214.1 secs

     total energy              =    -191.00562069 Ry
     estimated scf accuracy    <       0.00000515 Ry

     iteration #  7     ecut=    50.00 Ry     beta= 0.30
     Davidson diagonalization with overlap
     ethr =  2.86E-08,  avg # of iterations =  1.0

     total cpu time spent up to now is     1251.3 secs

     total energy              =    -191.00562005 Ry
     estimated scf accuracy    <       0.00000131 Ry

     iteration #  8     ecut=    50.00 Ry     beta= 0.30
     Davidson diagonalization with overlap
     ethr =  7.29E-09,  avg # of iterations =  2.0

     total cpu time spent up to now is     1298.7 secs

     total energy              =    -191.00562049 Ry
     estimated scf accuracy    <       0.00000003 Ry

     iteration #  9     ecut=    50.00 Ry     beta= 0.30
     Davidson diagonalization with overlap
     ethr =  1.84E-10,  avg # of iterations =  1.1

     total cpu time spent up to now is     1335.8 secs

     total energy              =    -191.00562048 Ry
     estimated scf accuracy    <       0.00000001 Ry

     iteration # 10     ecut=    50.00 Ry     beta= 0.30
     Davidson diagonalization with overlap
     ethr =  5.76E-11,  avg # of iterations =  2.0

     total cpu time spent up to now is     1379.6 secs

     total energy              =    -191.00562049 Ry
     estimated scf accuracy    <          9.9E-10 Ry

     iteration # 11     ecut=    50.00 Ry     beta= 0.30
     Davidson diagonalization with overlap
     ethr =  5.48E-12,  avg # of iterations =  2.0

     total cpu time spent up to now is     1431.5 secs

     total energy              =    -191.00562049 Ry
     estimated scf accuracy    <          3.7E-10 Ry

     iteration # 12     ecut=    50.00 Ry     beta= 0.30
     Davidson diagonalization with overlap
     ethr =  2.04E-12,  avg # of iterations =  1.0

     total cpu time spent up to now is     1469.8 secs

     total energy              =    -191.00562049 Ry
     estimated scf accuracy    <          4.3E-10 Ry

     iteration # 13     ecut=    50.00 Ry     beta= 0.30
     Davidson diagonalization with overlap
     ethr =  2.04E-12,  avg # of iterations =  1.4

     total cpu time spent up to now is     1507.7 secs

     End of self-consistent calculation

     Number of k-points >= 100: set verbosity='high' to print the bands.

     the Fermi energy is     6.3033 ev

!    total energy              =    -191.00562049 Ry
     estimated scf accuracy    <          9.4E-11 Ry
     smearing contrib. (-TS)   =      -0.00000329 Ry
     internal energy E=F+TS    =    -191.00561719 Ry

     The total energy is F=E-TS. E is the sum of the following terms:
     one-electron contribution =    -114.30458379 Ry
     hartree contribution      =      72.59791692 Ry
     xc contribution           =     -57.85957105 Ry
     ewald contribution        =     -91.43937927 Ry

     convergence has been achieved in  13 iterations

     Forces acting on atoms (cartesian axes, Ry/au):

     atom    1 type  2   force =    -0.00000001    0.00000000    0.00000001
     atom    2 type  1   force =     0.00000001   -0.00000000   -0.00000001
     The non-local contrib.  to forces
     atom    1 type  2   force =    -0.00000000    0.00000000   -0.00000000
     atom    2 type  1   force =    -0.00000000    0.00000000    0.00000000
     The ionic contribution  to forces
     atom    1 type  2   force =    -0.00000009    0.00000001    0.00000007
     atom    2 type  1   force =     0.00000009   -0.00000001   -0.00000007
     The local contribution  to forces
     atom    1 type  2   force =     0.00000008   -0.00000001   -0.00000005
     atom    2 type  1   force =    -0.00000007    0.00000001    0.00000005
     The core correction contribution to forces
     atom    1 type  2   force =     0.00000000   -0.00000000   -0.00000000
     atom    2 type  1   force =    -0.00000000    0.00000000    0.00000000
     The Hubbard contrib.    to forces
     atom    1 type  2   force =     0.00000000    0.00000000    0.00000000
     atom    2 type  1   force =     0.00000000    0.00000000    0.00000000
     The SCF correction term to forces
     atom    1 type  2   force =     0.00000000    0.00000000   -0.00000000
     atom    2 type  1   force =    -0.00000000   -0.00000000    0.00000000

     Total force =     0.000000     Total SCF correction =     0.000000
     SCF correction compared to forces is large: reduce conv_thr to get better values


     Computing stress (Cartesian axis) and pressure

          total   stress  (Ry/bohr**3)                   (kbar)     P=       -0.57
  -0.00000388  -0.00000000   0.00000000           -0.57       -0.00        0.00
  -0.00000000  -0.00000388  -0.00000000           -0.00       -0.57       -0.00
   0.00000000  -0.00000000  -0.00000388            0.00       -0.00       -0.57

     Energy error            =      3.1E-06 Ry
     Gradient error          =      9.8E-09 Ry/Bohr
     Cell gradient error     =      5.7E-01 kbar

     number of scf cycles    =   3
     number of bfgs steps    =   2

     enthalpy           old  =    -191.0056174058 Ry
     enthalpy           new  =    -191.0056204859 Ry

     CASE: enthalpy          _new < enthalpy          _old

     new trust radius        =       0.0007487989 bohr
     new conv_thr            =            1.0E-10 Ry

     new unit-cell volume =    320.66627 a.u.^3 (    47.51784 Ang^3 )
     density =      5.05459 g/cm^3

CELL_PARAMETERS (alat= 10.87715844)
  -0.499450334  -0.000000002   0.499450335
   0.000000001   0.499450333   0.499450334
  -0.499450332   0.499450333  -0.000000001

ATOMIC_POSITIONS (crystal)
Ga           -0.0000000041       -0.0000000005        0.0000000003
As            0.2500000041        0.2500000005        0.2499999997



     Writing config-only to output data dir ./GaAs.save/
     NEW-OLD atomic charge density approx. for the potential
     extrapolated charge   17.98871, renormalised to   18.00000

     total cpu time spent up to now is     1539.2 secs

     Self-consistent Calculation

     iteration #  1     ecut=    50.00 Ry     beta= 0.30
     Davidson diagonalization with overlap
     ethr =  1.00E-06,  avg # of iterations =  2.0

     total cpu time spent up to now is     1591.6 secs

     total energy              =    -191.00556334 Ry
     estimated scf accuracy    <       0.00004824 Ry

     iteration #  2     ecut=    50.00 Ry     beta= 0.30
     Davidson diagonalization with overlap
     ethr =  2.68E-07,  avg # of iterations =  3.0

     total cpu time spent up to now is     1643.3 secs

     total energy              =    -191.00562352 Ry
     estimated scf accuracy    <       0.00002117 Ry

     iteration #  3     ecut=    50.00 Ry     beta= 0.30
     Davidson diagonalization with overlap
     ethr =  1.18E-07,  avg # of iterations =  1.0

     total cpu time spent up to now is     1681.5 secs

     total energy              =    -191.00562144 Ry
     estimated scf accuracy    <       0.00000850 Ry

     iteration #  4     ecut=    50.00 Ry     beta= 0.30
     Davidson diagonalization with overlap
     ethr =  4.72E-08,  avg # of iterations =  1.0

     total cpu time spent up to now is     1717.5 secs

     total energy              =    -191.00562124 Ry
     estimated scf accuracy    <       0.00000266 Ry

     iteration #  5     ecut=    50.00 Ry     beta= 0.30
     Davidson diagonalization with overlap
     ethr =  1.48E-08,  avg # of iterations =  1.0

     total cpu time spent up to now is     1755.1 secs

     total energy              =    -191.00562103 Ry
     estimated scf accuracy    <       0.00000126 Ry

     iteration #  6     ecut=    50.00 Ry     beta= 0.30
     Davidson diagonalization with overlap
     ethr =  7.02E-09,  avg # of iterations =  1.0

     total cpu time spent up to now is     1791.0 secs

     total energy              =    -191.00562062 Ry
     estimated scf accuracy    <       0.00000062 Ry

     iteration #  7     ecut=    50.00 Ry     beta= 0.30
     Davidson diagonalization with overlap
     ethr =  3.44E-09,  avg # of iterations =  2.0

     total cpu time spent up to now is     1838.4 secs

     total energy              =    -191.00562082 Ry
     estimated scf accuracy    <       0.00000002 Ry

     iteration #  8     ecut=    50.00 Ry     beta= 0.30
     Davidson diagonalization with overlap
     ethr =  1.10E-10,  avg # of iterations =  1.0

     total cpu time spent up to now is     1876.1 secs

     total energy              =    -191.00562082 Ry
     estimated scf accuracy    <          3.9E-09 Ry

     iteration #  9     ecut=    50.00 Ry     beta= 0.30
     Davidson diagonalization with overlap
     ethr =  2.19E-11,  avg # of iterations =  2.0

     total cpu time spent up to now is     1922.6 secs

     total energy              =    -191.00562082 Ry
     estimated scf accuracy    <          1.7E-10 Ry

     iteration # 10     ecut=    50.00 Ry     beta= 0.30
     Davidson diagonalization with overlap
     ethr =  9.39E-13,  avg # of iterations =  1.8

     total cpu time spent up to now is     1961.6 secs

     total energy              =    -191.00562082 Ry
     estimated scf accuracy    <          2.1E-10 Ry

     iteration # 11     ecut=    50.00 Ry     beta= 0.30
     Davidson diagonalization with overlap
     ethr =  9.39E-13,  avg # of iterations =  2.0

     total cpu time spent up to now is     2008.3 secs

     End of self-consistent calculation

     Number of k-points >= 100: set verbosity='high' to print the bands.

     the Fermi energy is     6.3126 ev

!    total energy              =    -191.00562082 Ry
     estimated scf accuracy    <          4.6E-13 Ry
     smearing contrib. (-TS)   =      -0.00000287 Ry
     internal energy E=F+TS    =    -191.00561794 Ry

     The total energy is F=E-TS. E is the sum of the following terms:
     one-electron contribution =    -114.27373414 Ry
     hartree contribution      =      72.58682161 Ry
     xc contribution           =     -57.86021020 Ry
     ewald contribution        =     -91.45849521 Ry

     convergence has been achieved in  11 iterations

     Forces acting on atoms (cartesian axes, Ry/au):

     atom    1 type  2   force =    -0.00000001    0.00000000    0.00000001
     atom    2 type  1   force =     0.00000001   -0.00000000   -0.00000001
     The non-local contrib.  to forces
     atom    1 type  2   force =     0.00000000    0.00000000   -0.00000000
     atom    2 type  1   force =    -0.00000000    0.00000000    0.00000000
     The ionic contribution  to forces
     atom    1 type  2   force =    -0.00000003    0.00000001    0.00000004
     atom    2 type  1   force =     0.00000003   -0.00000001   -0.00000004
     The local contribution  to forces
     atom    1 type  2   force =     0.00000002   -0.00000001   -0.00000002
     atom    2 type  1   force =    -0.00000002    0.00000001    0.00000003
     The core correction contribution to forces
     atom    1 type  2   force =     0.00000000   -0.00000000   -0.00000000
     atom    2 type  1   force =    -0.00000000    0.00000000    0.00000000
     The Hubbard contrib.    to forces
     atom    1 type  2   force =     0.00000000    0.00000000    0.00000000
     atom    2 type  1   force =     0.00000000    0.00000000    0.00000000
     The SCF correction term to forces
     atom    1 type  2   force =    -0.00000000   -0.00000000    0.00000000
     atom    2 type  1   force =    -0.00000000   -0.00000000   -0.00000000

     Total force =     0.000000     Total SCF correction =     0.000000


     Computing stress (Cartesian axis) and pressure

          total   stress  (Ry/bohr**3)                   (kbar)     P=       -0.06
  -0.00000043  -0.00000000   0.00000000           -0.06       -0.00        0.00
  -0.00000000  -0.00000043   0.00000000           -0.00       -0.06        0.00
   0.00000000   0.00000000  -0.00000043            0.00        0.00       -0.06

     Energy error            =      3.3E-07 Ry
     Gradient error          =      7.6E-09 Ry/Bohr
     Cell gradient error     =      6.3E-02 kbar

     bfgs converged in   4 scf cycles and   3 bfgs steps
     (criteria: energy <  1.0E-04 Ry, force <  1.0E-03 Ry/Bohr, cell <  5.0E-01 kbar)

     End of BFGS Geometry Optimization

     Final enthalpy           =    -191.0056208172 Ry

     File ./GaAs.bfgs deleted, as requested
Begin final coordinates
     new unit-cell volume =    320.66627 a.u.^3 (    47.51784 Ang^3 )
     density =      5.05459 g/cm^3

CELL_PARAMETERS (alat= 10.87715844)
  -0.499450334  -0.000000002   0.499450335
   0.000000001   0.499450333   0.499450334
  -0.499450332   0.499450333  -0.000000001

ATOMIC_POSITIONS (crystal)
Ga           -0.0000000041       -0.0000000005        0.0000000003
As            0.2500000041        0.2500000005        0.2499999997
End final coordinates



     Writing config-only to output data dir ./GaAs.save/

     Final scf calculation at the relaxed structure.
     The G-vectors are recalculated for the final unit cell
     Results may differ from those at the preceding step.

     G-vector sticks info
     --------------------
     sticks:   dense  smooth     PW     G-vecs:    dense   smooth      PW
     Sum        1639     817    253                43599    15353    2733

     Using Slab Decomposition



     bravais-lattice index     =            2
     lattice parameter (alat)  =      10.8772  a.u.
     unit-cell volume          =     320.6663 (a.u.)^3
     number of atoms/cell      =            2
     number of atomic types    =            2
     number of electrons       =        18.00
     number of Kohn-Sham states=           26
     kinetic-energy cutoff     =      50.0000  Ry
     charge density cutoff     =     400.0000  Ry
     scf convergence threshold =      1.0E-10
     mixing beta               =       0.3000
     number of iterations used =            8  plain     mixing
     press convergence thresh. =      5.0E-01
     Exchange-correlation= PBE
                           (   1   4   3   4   0   0   0)
     Non magnetic calculation with spin-orbit


     celldm(1)=  10.877158  celldm(2)=   0.000000  celldm(3)=   0.000000
     celldm(4)=   0.000000  celldm(5)=   0.000000  celldm(6)=   0.000000

     crystal axes: (cart. coord. in units of alat)
               a(1) = (  -0.499450  -0.000000   0.499450 )  
               a(2) = (   0.000000   0.499450   0.499450 )  
               a(3) = (  -0.499450   0.499450  -0.000000 )  

     reciprocal axes: (cart. coord. in units 2 pi/alat)
               b(1) = ( -1.001101 -1.001101  1.001101 )  
               b(2) = (  1.001101  1.001101  1.001101 )  
               b(3) = ( -1.001101  1.001101 -1.001101 )  


     PseudoPot. # 1 for As read from file:
     ../../pseudopotential/As.rel-pbe-n-rrkjus_psl.0.2.UPF
     MD5 check sum: fd1d9cb43fef956eb1cdd0c60ce90062
     Pseudo is Ultrasoft + core correction, Zval =  5.0
     Generated using "atomic" code by A. Dal Corso  v.5.0.2 svn rev. 9415
     Using radial grid of 1209 points,  6 beta functions with: 
                l(1) =   0
                l(2) =   0
                l(3) =   1
                l(4) =   1
                l(5) =   1
                l(6) =   1
     Q(r) pseudized with 0 coefficients 


     PseudoPot. # 2 for Ga read from file:
     ../../pseudopotential/Ga.rel-pbe-dn-rrkjus_psl.0.2.UPF
     MD5 check sum: b82f27152fdba9c8aaf7d704465ad383
     Pseudo is Ultrasoft + core correction, Zval = 13.0
     Generated using "atomic" code by A. Dal Corso  v.5.0.2 svn rev. 9415
     Using radial grid of 1205 points, 10 beta functions with: 
                l(1) =   0
                l(2) =   0
                l(3) =   1
                l(4) =   1
                l(5) =   1
                l(6) =   1
                l(7) =   2
                l(8) =   2
                l(9) =   2
               l(10) =   2
     Q(r) pseudized with 0 coefficients 


     atomic species   valence    mass     pseudopotential
        As             5.00    74.92160     As( 1.00)
        Ga            13.00    69.72000     Ga( 1.00)

     No symmetry found



   Cartesian axes

     site n.     atom                  positions (alat units)
         1           Ga  tau(   1) = (   0.0000000  -0.0000000  -0.0000000  )
         2           As  tau(   2) = (  -0.2497252   0.2497252   0.2497252  )

     number of k points=   260  Gaussian smearing, width (Ry)=  0.0020

     Number of k-points >= 100: set verbosity='high' to print them.

     Dense  grid:    43599 G-vectors     FFT dimensions: (  50,  50,  50)

     Smooth grid:    15353 G-vectors     FFT dimensions: (  36,  36,  36)

     Estimated max dynamical RAM per process >     915.30 MB

     Initial potential from superposition of free atoms

     starting charge      17.9971, renormalised to      18.0000
     Starting wfcs are   26 randomized atomic wfcs

     total cpu time spent up to now is     2055.1 secs

     Self-consistent Calculation

     iteration #  1     ecut=    50.00 Ry     beta= 0.30
     Davidson diagonalization with overlap
     c_bands:  1 eigenvalues not converged
     c_bands:  1 eigenvalues not converged
     ethr =  1.00E-06,  avg # of iterations = 14.2

     total cpu time spent up to now is     2188.8 secs

     total energy              =    -191.00431841 Ry
     estimated scf accuracy    <       0.04536389 Ry

     iteration #  2     ecut=    50.00 Ry     beta= 0.30
     Davidson diagonalization with overlap
     ethr =  2.52E-04,  avg # of iterations =  1.0

     total cpu time spent up to now is     2227.4 secs

     total energy              =    -191.00485645 Ry
     estimated scf accuracy    <       0.01234666 Ry

     iteration #  3     ecut=    50.00 Ry     beta= 0.30
     Davidson diagonalization with overlap
     ethr =  6.86E-05,  avg # of iterations =  1.1

     total cpu time spent up to now is     2265.4 secs

     total energy              =    -191.00547887 Ry
     estimated scf accuracy    <       0.00231410 Ry

     iteration #  4     ecut=    50.00 Ry     beta= 0.30
     Davidson diagonalization with overlap
     ethr =  1.29E-05,  avg # of iterations =  1.1

     total cpu time spent up to now is     2303.0 secs

     total energy              =    -191.00559678 Ry
     estimated scf accuracy    <       0.00007196 Ry

     iteration #  5     ecut=    50.00 Ry     beta= 0.30
     Davidson diagonalization with overlap
     ethr =  4.00E-07,  avg # of iterations =  2.7

     total cpu time spent up to now is     2347.3 secs

     total energy              =    -191.00560983 Ry
     estimated scf accuracy    <       0.00000969 Ry

     iteration #  6     ecut=    50.00 Ry     beta= 0.30
     Davidson diagonalization with overlap
     ethr =  5.38E-08,  avg # of iterations =  2.0

     total cpu time spent up to now is     2396.8 secs

     total energy              =    -191.00561157 Ry
     estimated scf accuracy    <       0.00000816 Ry

     iteration #  7     ecut=    50.00 Ry     beta= 0.30
     Davidson diagonalization with overlap
     ethr =  4.53E-08,  avg # of iterations =  2.0

     total cpu time spent up to now is     2441.7 secs

     total energy              =    -191.00561247 Ry
     estimated scf accuracy    <       0.00000057 Ry

     iteration #  8     ecut=    50.00 Ry     beta= 0.30
     Davidson diagonalization with overlap
     ethr =  3.15E-09,  avg # of iterations =  2.1

     total cpu time spent up to now is     2491.5 secs

     total energy              =    -191.00561287 Ry
     estimated scf accuracy    <       0.00000046 Ry

     iteration #  9     ecut=    50.00 Ry     beta= 0.30
     Davidson diagonalization with overlap
     ethr =  2.56E-09,  avg # of iterations =  1.0

     total cpu time spent up to now is     2530.0 secs

     total energy              =    -191.00561254 Ry
     estimated scf accuracy    <       0.00000036 Ry

     iteration # 10     ecut=    50.00 Ry     beta= 0.30
     Davidson diagonalization with overlap
     ethr =  2.02E-09,  avg # of iterations =  2.3

     total cpu time spent up to now is     2576.8 secs

     total energy              =    -191.00561264 Ry
     estimated scf accuracy    <       0.00000067 Ry

     iteration # 11     ecut=    50.00 Ry     beta= 0.30
     Davidson diagonalization with overlap
     ethr =  2.02E-09,  avg # of iterations =  2.0

     total cpu time spent up to now is     2621.5 secs

     total energy              =    -191.00561273 Ry
     estimated scf accuracy    <       0.00000003 Ry

     iteration # 12     ecut=    50.00 Ry     beta= 0.30
     Davidson diagonalization with overlap
     ethr =  1.72E-10,  avg # of iterations =  2.0

     total cpu time spent up to now is     2663.4 secs

     total energy              =    -191.00561272 Ry
     estimated scf accuracy    <          5.7E-09 Ry

     iteration # 13     ecut=    50.00 Ry     beta= 0.30
     Davidson diagonalization with overlap
     ethr =  3.16E-11,  avg # of iterations =  2.0

     total cpu time spent up to now is     2712.6 secs

     total energy              =    -191.00561273 Ry
     estimated scf accuracy    <          1.3E-09 Ry

     iteration # 14     ecut=    50.00 Ry     beta= 0.30
     Davidson diagonalization with overlap
     ethr =  6.99E-12,  avg # of iterations =  1.0

     total cpu time spent up to now is     2748.4 secs

     total energy              =    -191.00561273 Ry
     estimated scf accuracy    <          2.4E-10 Ry

     iteration # 15     ecut=    50.00 Ry     beta= 0.30
     Davidson diagonalization with overlap
     ethr =  1.35E-12,  avg # of iterations =  1.0

     total cpu time spent up to now is     2786.9 secs

     End of self-consistent calculation

     Number of k-points >= 100: set verbosity='high' to print the bands.

     the Fermi energy is     6.3126 ev

!    total energy              =    -191.00561273 Ry
     estimated scf accuracy    <          7.2E-11 Ry
     smearing contrib. (-TS)   =      -0.00000287 Ry
     internal energy E=F+TS    =    -191.00560985 Ry

     The total energy is F=E-TS. E is the sum of the following terms:
     one-electron contribution =    -114.27364837 Ry
     hartree contribution      =      72.58672755 Ry
     xc contribution           =     -57.86019382 Ry
     ewald contribution        =     -91.45849521 Ry

     convergence has been achieved in  15 iterations

     Forces acting on atoms (cartesian axes, Ry/au):

     atom    1 type  2   force =    -0.00000001    0.00000000    0.00000001
     atom    2 type  1   force =     0.00000001   -0.00000000   -0.00000001
     The non-local contrib.  to forces
     atom    1 type  2   force =     0.00000000    0.00000000   -0.00000000
     atom    2 type  1   force =    -0.00000000    0.00000000    0.00000000
     The ionic contribution  to forces
     atom    1 type  2   force =    -0.00000003    0.00000001    0.00000004
     atom    2 type  1   force =     0.00000003   -0.00000001   -0.00000004
     The local contribution  to forces
     atom    1 type  2   force =     0.00000002   -0.00000001   -0.00000002
     atom    2 type  1   force =    -0.00000002    0.00000001    0.00000003
     The core correction contribution to forces
     atom    1 type  2   force =     0.00000000   -0.00000000   -0.00000000
     atom    2 type  1   force =    -0.00000000    0.00000000    0.00000000
     The Hubbard contrib.    to forces
     atom    1 type  2   force =     0.00000000    0.00000000    0.00000000
     atom    2 type  1   force =     0.00000000    0.00000000    0.00000000
     The SCF correction term to forces
     atom    1 type  2   force =    -0.00000000    0.00000000   -0.00000000
     atom    2 type  1   force =    -0.00000000   -0.00000000    0.00000000

     Total force =     0.000000     Total SCF correction =     0.000000
     SCF correction compared to forces is large: reduce conv_thr to get better values


     Computing stress (Cartesian axis) and pressure

          total   stress  (Ry/bohr**3)                   (kbar)     P=       -0.23
  -0.00000158  -0.00000000   0.00000000           -0.23       -0.00        0.00
  -0.00000000  -0.00000158   0.00000000           -0.00       -0.23        0.00
   0.00000000   0.00000000  -0.00000158            0.00        0.00       -0.23


     init_run     :    144.65s CPU     36.62s WALL (       2 calls)
     electrons    :  12101.42s CPU   2627.42s WALL (       5 calls)
     update_pot   :      6.60s CPU      5.02s WALL (       3 calls)
     forces       :     83.68s CPU     15.18s WALL (       5 calls)
     stress       :    466.12s CPU    130.10s WALL (       5 calls)

     Called by init_run:
     wfcinit      :    137.33s CPU     30.88s WALL (       2 calls)
     potinit      :      0.85s CPU      0.91s WALL (       2 calls)
     hinit0       :      4.37s CPU      4.31s WALL (       2 calls)

     Called by electrons:
     c_bands      :  10076.19s CPU   2198.53s WALL (      59 calls)
     sum_band     :   1960.00s CPU    412.56s WALL (      59 calls)
     v_of_rho     :      8.54s CPU      2.63s WALL (      63 calls)
     newd         :     53.82s CPU     12.82s WALL (      63 calls)
     mix_rho      :      3.96s CPU      1.16s WALL (      59 calls)

     Called by c_bands:
     init_us_2    :    140.97s CPU     20.23s WALL (   33800 calls)
     init_us_2:cp :    140.50s CPU     20.17s WALL (   33800 calls)
     cegterg      :   9311.84s CPU   2087.09s WALL (   15340 calls)

     Called by *egterg:
     cdiaghg      :    238.51s CPU     31.75s WALL (   43120 calls)
     h_psi        :   7694.04s CPU   1835.54s WALL (   44680 calls)
     s_psi        :    179.05s CPU     35.25s WALL (   44680 calls)
     g_psi        :     46.71s CPU      6.56s WALL (   28820 calls)

     Called by h_psi:
     h_psi:calbec :    290.12s CPU     67.95s WALL (   44680 calls)
     vloc_psi     :   7229.49s CPU   1728.78s WALL (   44680 calls)
     add_vuspsi   :    141.70s CPU     33.47s WALL (   44680 calls)

     General routines
     calbec       :    430.75s CPU     98.25s WALL (   66520 calls)
     fft          :      8.99s CPU      2.72s WALL (    1652 calls)
     ffts         :      1.43s CPU      0.30s WALL (     488 calls)
     fftw         :   7039.60s CPU   1645.23s WALL ( 4693528 calls)
     interpolate  :      2.11s CPU      0.68s WALL (     252 calls)


     PWSCF        :      3h33m CPU  46m55.34s WALL


   This run was terminated on:  19:56:37  12May2024            

=------------------------------------------------------------------------------=
   JOB DONE.
=------------------------------------------------------------------------------=
