
     Program PWSCF v.7.0 starts on 27May2024 at  6:23:17 

     This program is part of the open-source Quantum ESPRESSO suite
     for quantum simulation of materials; please cite
         "P. Giannozzi et al., J. Phys.:Condens. Matter 21 395502 (2009);
         "P. Giannozzi et al., J. Phys.:Condens. Matter 29 465901 (2017);
         "P. Giannozzi et al., J. Chem. Phys. 152 154105 (2020);
          URL http://www.quantum-espresso.org", 
     in publications or presentations arising from this work. More details at
     http://www.quantum-espresso.org/quote

     Parallel version (MPI), running on    32 processors

     MPI processes distributed on     1 nodes
     R & G space division:  proc/nbgrp/npool/nimage =      32
     243134 MiB available memory on the printing compute node when the environment starts
 
     Waiting for input...
     Reading input from standard input

     Current dimensions of program PWSCF are:
     Max number of different atomic species (ntypx) = 10
     Max number of k-points (npk) =  40000
     Max angular momentum in pseudopotentials (lmaxx) =  4

     Atomic positions and unit cell read from directory:
     ./GaAs.save/
     Atomic positions from file used, from input discarded
 
     file Ga.rel-pz-dn-rrkjus_psl.0.2.UPF: wavefunction(s)  4S 3D 3D renormalized
     Found identity + (  0.0000  0.0000  0.2500) symmetry
     This is a supercell, fractional translations are disabled

     Subspace diagonalization in iterative solution of the eigenvalue problem:
     one sub-group per band group will be used
     scalapack distributed-memory algorithm (size of sub-group:  5*  5 procs)

 
     Parallelization info
     --------------------
     sticks:   dense  smooth     PW     G-vecs:    dense   smooth      PW
     Min        1258     581    153               166718    52269    7116
     Max        1259     582    154               166721    52272    7120
     Sum       40267   18601   4927              5335021  1672665  227817
 
     Using Slab Decomposition
 


     bravais-lattice index     =            2
     lattice parameter (alat)  =      42.4055  a.u.
     unit-cell volume          =   19063.6110 (a.u.)^3
     number of atoms/cell      =          128
     number of atomic types    =            2
     number of electrons       =      1152.00
     number of Kohn-Sham states=         1664
     kinetic-energy cutoff     =      75.0000  Ry
     charge density cutoff     =     650.0000  Ry
     Exchange-correlation= LDA
                           (   1   1   0   0   0   0   0)
     Non magnetic calculation with spin-orbit


     celldm(1)=  42.405454  celldm(2)=   0.000000  celldm(3)=   0.000000
     celldm(4)=   0.000000  celldm(5)=   0.000000  celldm(6)=   0.000000

     crystal axes: (cart. coord. in units of alat)
               a(1) = (  -0.500000   0.000000   0.500000 )  
               a(2) = (   0.000000   0.500000   0.500000 )  
               a(3) = (  -0.500000   0.500000   0.000000 )  

     reciprocal axes: (cart. coord. in units 2 pi/alat)
               b(1) = ( -1.000000 -1.000000  1.000000 )  
               b(2) = (  1.000000  1.000000  1.000000 )  
               b(3) = ( -1.000000  1.000000 -1.000000 )  


     PseudoPot. # 1 for As read from file:
     input/As.rel-pz-n-rrkjus_psl.0.2.UPF
     MD5 check sum: d366ee44a4414f2f25e25d92dfa1c56c
     Pseudo is Ultrasoft + core correction, Zval =  5.0
     Generated using "atomic" code by A. Dal Corso  v.5.0.2 svn rev. 9415
     Using radial grid of 1209 points,  6 beta functions with: 
                l(1) =   0
                l(2) =   0
                l(3) =   1
                l(4) =   1
                l(5) =   1
                l(6) =   1
     Q(r) pseudized with 0 coefficients 


     PseudoPot. # 2 for Ga read from file:
     input/Ga.rel-pz-dn-rrkjus_psl.0.2.UPF
     MD5 check sum: f483e69cb874fa1f04bd3077f714b60c
     Pseudo is Ultrasoft + core correction, Zval = 13.0
     Generated using "atomic" code by A. Dal Corso  v.5.0.2 svn rev. 9415
     Using radial grid of 1205 points, 10 beta functions with: 
                l(1) =   0
                l(2) =   0
                l(3) =   1
                l(4) =   1
                l(5) =   1
                l(6) =   1
                l(7) =   2
                l(8) =   2
                l(9) =   2
               l(10) =   2
     Q(r) pseudized with 0 coefficients 


     atomic species   valence    mass     pseudopotential
        As             5.00    74.92160     As( 1.00)
        Ga            13.00    69.72000     Ga( 1.00)

     No symmetry found



   Cartesian axes

     site n.     atom                  positions (alat units)
         1           Ga  tau(   1) = (   0.0000000   0.0000000   0.0000000  )
         2           As  tau(   2) = (  -0.0625000   0.0625000   0.0625000  )
         3           Ga  tau(   3) = (  -0.1250000   0.1250000   0.0000000  )
         4           As  tau(   4) = (  -0.1875000   0.1875000   0.0625000  )
         5           Ga  tau(   5) = (  -0.2500000   0.2500000   0.0000000  )
         6           As  tau(   6) = (  -0.3125000   0.3125000   0.0625000  )
         7           Ga  tau(   7) = (  -0.3750000   0.3750000   0.0000000  )
         8           As  tau(   8) = (  -0.4375000   0.4375000   0.0625000  )
         9           Ga  tau(   9) = (   0.0000000   0.1250000   0.1250000  )
        10           As  tau(  10) = (  -0.0625000   0.1875000   0.1875000  )
        11           Ga  tau(  11) = (  -0.1250000   0.2500000   0.1250000  )
        12           As  tau(  12) = (  -0.1875000   0.3125000   0.1875000  )
        13           Ga  tau(  13) = (  -0.2500000   0.3750000   0.1250000  )
        14           As  tau(  14) = (  -0.3125000   0.4375000   0.1875000  )
        15           Ga  tau(  15) = (  -0.3750000   0.5000000   0.1250000  )
        16           As  tau(  16) = (  -0.4375000   0.5625000   0.1875000  )
        17           Ga  tau(  17) = (   0.0000000   0.2500000   0.2500000  )
        18           As  tau(  18) = (  -0.0625000   0.3125000   0.3125000  )
        19           Ga  tau(  19) = (  -0.1250000   0.3750000   0.2500000  )
        20           As  tau(  20) = (  -0.1875000   0.4375000   0.3125000  )
        21           Ga  tau(  21) = (  -0.2500000   0.5000000   0.2500000  )
        22           As  tau(  22) = (  -0.3125000   0.5625000   0.3125000  )
        23           Ga  tau(  23) = (  -0.3750000   0.6250000   0.2500000  )
        24           As  tau(  24) = (  -0.4375000   0.6875000   0.3125000  )
        25           Ga  tau(  25) = (   0.0000000   0.3750000   0.3750000  )
        26           As  tau(  26) = (  -0.0625000   0.4375000   0.4375000  )
        27           Ga  tau(  27) = (  -0.1250000   0.5000000   0.3750000  )
        28           As  tau(  28) = (  -0.1875000   0.5625000   0.4375000  )
        29           Ga  tau(  29) = (  -0.2500000   0.6250000   0.3750000  )
        30           As  tau(  30) = (  -0.3125000   0.6875000   0.4375000  )
        31           Ga  tau(  31) = (  -0.3750000   0.7500000   0.3750000  )
        32           As  tau(  32) = (  -0.4375000   0.8125000   0.4375000  )
        33           Ga  tau(  33) = (  -0.1250000   0.0000000   0.1250000  )
        34           As  tau(  34) = (  -0.1875000   0.0625000   0.1875000  )
        35           Ga  tau(  35) = (  -0.2500000   0.1250000   0.1250000  )
        36           As  tau(  36) = (  -0.3125000   0.1875000   0.1875000  )
        37           Ga  tau(  37) = (  -0.3750000   0.2500000   0.1250000  )
        38           As  tau(  38) = (  -0.4375000   0.3125000   0.1875000  )
        39           Ga  tau(  39) = (  -0.5000000   0.3750000   0.1250000  )
        40           As  tau(  40) = (  -0.5625000   0.4375000   0.1875000  )
        41           Ga  tau(  41) = (  -0.1250000   0.1250000   0.2500000  )
        42           As  tau(  42) = (  -0.1875000   0.1875000   0.3125000  )
        43           Ga  tau(  43) = (  -0.2500000   0.2500000   0.2500000  )
        44           As  tau(  44) = (  -0.3125000   0.3125000   0.3125000  )
        45           Ga  tau(  45) = (  -0.3750000   0.3750000   0.2500000  )
        46           As  tau(  46) = (  -0.4375000   0.4375000   0.3125000  )
        47           Ga  tau(  47) = (  -0.5000000   0.5000000   0.2500000  )
        48           As  tau(  48) = (  -0.5625000   0.5625000   0.3125000  )
        49           Ga  tau(  49) = (  -0.1250000   0.2500000   0.3750000  )
        50           As  tau(  50) = (  -0.1875000   0.3125000   0.4375000  )
        51           Ga  tau(  51) = (  -0.2500000   0.3750000   0.3750000  )
        52           As  tau(  52) = (  -0.3125000   0.4375000   0.4375000  )
        53           Ga  tau(  53) = (  -0.3750000   0.5000000   0.3750000  )
        54           As  tau(  54) = (  -0.4375000   0.5625000   0.4375000  )
        55           Ga  tau(  55) = (  -0.5000000   0.6250000   0.3750000  )
        56           As  tau(  56) = (  -0.5625000   0.6875000   0.4375000  )
        57           Ga  tau(  57) = (  -0.1250000   0.3750000   0.5000000  )
        58           As  tau(  58) = (  -0.1875000   0.4375000   0.5625000  )
        59           Ga  tau(  59) = (  -0.2500000   0.5000000   0.5000000  )
        60           As  tau(  60) = (  -0.3125000   0.5625000   0.5625000  )
        61           Ga  tau(  61) = (  -0.3750000   0.6250000   0.5000000  )
        62           As  tau(  62) = (  -0.4375000   0.6875000   0.5625000  )
        63           Ga  tau(  63) = (  -0.5000000   0.7500000   0.5000000  )
        64           As  tau(  64) = (  -0.5625000   0.8125000   0.5625000  )
        65           Ga  tau(  65) = (  -0.2500000   0.0000000   0.2500000  )
        66           As  tau(  66) = (  -0.3125000   0.0625000   0.3125000  )
        67           Ga  tau(  67) = (  -0.3750000   0.1250000   0.2500000  )
        68           As  tau(  68) = (  -0.4375000   0.1875000   0.3125000  )
        69           Ga  tau(  69) = (  -0.5000000   0.2500000   0.2500000  )
        70           As  tau(  70) = (  -0.5625000   0.3125000   0.3125000  )
        71           Ga  tau(  71) = (  -0.6250000   0.3750000   0.2500000  )
        72           As  tau(  72) = (  -0.6875000   0.4375000   0.3125000  )
        73           Ga  tau(  73) = (  -0.2500000   0.1250000   0.3750000  )
        74           As  tau(  74) = (  -0.3125000   0.1875000   0.4375000  )
        75           Ga  tau(  75) = (  -0.3750000   0.2500000   0.3750000  )
        76           As  tau(  76) = (  -0.4375000   0.3125000   0.4375000  )
        77           Ga  tau(  77) = (  -0.5000000   0.3750000   0.3750000  )
        78           As  tau(  78) = (  -0.5625000   0.4375000   0.4375000  )
        79           Ga  tau(  79) = (  -0.6250000   0.5000000   0.3750000  )
        80           As  tau(  80) = (  -0.6875000   0.5625000   0.4375000  )
        81           Ga  tau(  81) = (  -0.2500000   0.2500000   0.5000000  )
        82           As  tau(  82) = (  -0.3125000   0.3125000   0.5625000  )
        83           Ga  tau(  83) = (  -0.3750000   0.3750000   0.5000000  )
        84           As  tau(  84) = (  -0.4375000   0.4375000   0.5625000  )
        85           Ga  tau(  85) = (  -0.5000000   0.5000000   0.5000000  )
        86           As  tau(  86) = (  -0.5625000   0.5625000   0.5625000  )
        87           Ga  tau(  87) = (  -0.6250000   0.6250000   0.5000000  )
        88           As  tau(  88) = (  -0.6875000   0.6875000   0.5625000  )
        89           Ga  tau(  89) = (  -0.2500000   0.3750000   0.6250000  )
        90           As  tau(  90) = (  -0.3125000   0.4375000   0.6875000  )
        91           Ga  tau(  91) = (  -0.3750000   0.5000000   0.6250000  )
        92           As  tau(  92) = (  -0.4375000   0.5625000   0.6875000  )
        93           Ga  tau(  93) = (  -0.5000000   0.6250000   0.6250000  )
        94           As  tau(  94) = (  -0.5625000   0.6875000   0.6875000  )
        95           Ga  tau(  95) = (  -0.6250000   0.7500000   0.6250000  )
        96           As  tau(  96) = (  -0.6875000   0.8125000   0.6875000  )
        97           Ga  tau(  97) = (  -0.3750000   0.0000000   0.3750000  )
        98           As  tau(  98) = (  -0.4375000   0.0625000   0.4375000  )
        99           Ga  tau(  99) = (  -0.5000000   0.1250000   0.3750000  )
       100           As  tau( 100) = (  -0.5625000   0.1875000   0.4375000  )
       101           Ga  tau( 101) = (  -0.6250000   0.2500000   0.3750000  )
       102           As  tau( 102) = (  -0.6875000   0.3125000   0.4375000  )
       103           Ga  tau( 103) = (  -0.7500000   0.3750000   0.3750000  )
       104           As  tau( 104) = (  -0.8125000   0.4375000   0.4375000  )
       105           Ga  tau( 105) = (  -0.3750000   0.1250000   0.5000000  )
       106           As  tau( 106) = (  -0.4375000   0.1875000   0.5625000  )
       107           Ga  tau( 107) = (  -0.5000000   0.2500000   0.5000000  )
       108           As  tau( 108) = (  -0.5625000   0.3125000   0.5625000  )
       109           Ga  tau( 109) = (  -0.6250000   0.3750000   0.5000000  )
       110           As  tau( 110) = (  -0.6875000   0.4375000   0.5625000  )
       111           Ga  tau( 111) = (  -0.7500000   0.5000000   0.5000000  )
       112           As  tau( 112) = (  -0.8125000   0.5625000   0.5625000  )
       113           Ga  tau( 113) = (  -0.3750000   0.2500000   0.6250000  )
       114           As  tau( 114) = (  -0.4375000   0.3125000   0.6875000  )
       115           Ga  tau( 115) = (  -0.5000000   0.3750000   0.6250000  )
       116           As  tau( 116) = (  -0.5625000   0.4375000   0.6875000  )
       117           Ga  tau( 117) = (  -0.6250000   0.5000000   0.6250000  )
       118           As  tau( 118) = (  -0.6875000   0.5625000   0.6875000  )
       119           Ga  tau( 119) = (  -0.7500000   0.6250000   0.6250000  )
       120           As  tau( 120) = (  -0.8125000   0.6875000   0.6875000  )
       121           Ga  tau( 121) = (  -0.3750000   0.3750000   0.7500000  )
       122           As  tau( 122) = (  -0.4375000   0.4375000   0.8125000  )
       123           Ga  tau( 123) = (  -0.5000000   0.5000000   0.7500000  )
       124           As  tau( 124) = (  -0.5625000   0.5625000   0.8125000  )
       125           Ga  tau( 125) = (  -0.6250000   0.6250000   0.7500000  )
       126           As  tau( 126) = (  -0.6875000   0.6875000   0.8125000  )
       127           Ga  tau( 127) = (  -0.7500000   0.7500000   0.7500000  )
       128           As  tau( 128) = (  -0.8125000   0.8125000   0.8125000  )

     number of k points=    57  Gaussian smearing, width (Ry)=  0.0020
                       cart. coord. in units 2pi/alat
        k(    1) = (   0.0000000   0.0000000   0.0000000), wk =   0.0175439
        k(    2) = (  -0.0344828  -0.0344828   0.0344828), wk =   0.0175439
        k(    3) = (  -0.0344828   0.0344828   0.0344828), wk =   0.0175439
        k(    4) = (  -0.0689655   0.0689655   0.0689655), wk =   0.0175439
        k(    5) = (  -0.0689655  -0.0689655   0.0689655), wk =   0.0175439
        k(    6) = (  -0.1034483  -0.1034483   0.1034483), wk =   0.0175439
        k(    7) = (  -0.1034483   0.1034483   0.1034483), wk =   0.0175439
        k(    8) = (  -0.1379310   0.1379310   0.1379310), wk =   0.0175439
        k(    9) = (  -0.1379310  -0.1379310   0.1379310), wk =   0.0175439
        k(   10) = (  -0.1724138   0.1724138   0.1724138), wk =   0.0175439
        k(   11) = (  -0.1724138  -0.1724138   0.1724138), wk =   0.0175439
        k(   12) = (  -0.2068965  -0.2068965   0.2068965), wk =   0.0175439
        k(   13) = (  -0.2068965   0.2068965   0.2068965), wk =   0.0175439
        k(   14) = (  -0.2413793  -0.2413793   0.2413793), wk =   0.0175439
        k(   15) = (  -0.2413793   0.2413793   0.2413793), wk =   0.0175439
        k(   16) = (  -0.2758621   0.2758621   0.2758621), wk =   0.0175439
        k(   17) = (  -0.2758621  -0.2758621   0.2758621), wk =   0.0175439
        k(   18) = (  -0.3103448  -0.3103448   0.3103448), wk =   0.0175439
        k(   19) = (  -0.3103448   0.3103448   0.3103448), wk =   0.0175439
        k(   20) = (  -0.3448276  -0.3448276   0.3448276), wk =   0.0175439
        k(   21) = (  -0.3448276   0.3448276   0.3448276), wk =   0.0175439
        k(   22) = (  -0.3793103  -0.3793103   0.3793103), wk =   0.0175439
        k(   23) = (  -0.3793103   0.3793103   0.3793103), wk =   0.0175439
        k(   24) = (  -0.4137931  -0.4137931   0.4137931), wk =   0.0175439
        k(   25) = (  -0.4137931   0.4137931   0.4137931), wk =   0.0175439
        k(   26) = (  -0.4482759  -0.4482759   0.4482759), wk =   0.0175439
        k(   27) = (  -0.4482759   0.4482759   0.4482759), wk =   0.0175439
        k(   28) = (  -0.4827586   0.4827586   0.4827586), wk =   0.0175439
        k(   29) = (  -0.4827586  -0.4827586   0.4827586), wk =   0.0175439
        k(   30) = (  -0.5172414  -0.5172414   0.5172414), wk =   0.0175439
        k(   31) = (  -0.5172414   0.5172414   0.5172414), wk =   0.0175439
        k(   32) = (  -0.5517241  -0.5517241   0.5517241), wk =   0.0175439
        k(   33) = (  -0.5517241   0.5517241   0.5517241), wk =   0.0175439
        k(   34) = (  -0.5862069  -0.5862069   0.5862069), wk =   0.0175439
        k(   35) = (  -0.5862069   0.5862069   0.5862069), wk =   0.0175439
        k(   36) = (  -0.6206897  -0.6206897   0.6206897), wk =   0.0175439
        k(   37) = (  -0.6206897   0.6206897   0.6206897), wk =   0.0175439
        k(   38) = (  -0.6551724  -0.6551724   0.6551724), wk =   0.0175439
        k(   39) = (  -0.6551724   0.6551724   0.6551724), wk =   0.0175439
        k(   40) = (  -0.6896552  -0.6896552   0.6896552), wk =   0.0175439
        k(   41) = (  -0.6896552   0.6896552   0.6896552), wk =   0.0175439
        k(   42) = (  -0.7241379  -0.7241379   0.7241379), wk =   0.0175439
        k(   43) = (  -0.7241379   0.7241379   0.7241379), wk =   0.0175439
        k(   44) = (  -0.7586207  -0.7586207   0.7586207), wk =   0.0175439
        k(   45) = (  -0.7586207   0.7586207   0.7586207), wk =   0.0175439
        k(   46) = (  -0.7931034  -0.7931034   0.7931034), wk =   0.0175439
        k(   47) = (  -0.7931034   0.7931034   0.7931034), wk =   0.0175439
        k(   48) = (  -0.8275862   0.8275862   0.8275862), wk =   0.0175439
        k(   49) = (  -0.8275862  -0.8275862   0.8275862), wk =   0.0175439
        k(   50) = (  -0.8620690  -0.8620690   0.8620690), wk =   0.0175439
        k(   51) = (  -0.8620690   0.8620690   0.8620690), wk =   0.0175439
        k(   52) = (  -0.8965517  -0.8965517   0.8965517), wk =   0.0175439
        k(   53) = (  -0.8965517   0.8965517   0.8965517), wk =   0.0175439
        k(   54) = (  -0.9310345   0.9310345   0.9310345), wk =   0.0175439
        k(   55) = (  -0.9310345  -0.9310345   0.9310345), wk =   0.0175439
        k(   56) = (  -0.9655172  -0.9655172   0.9655172), wk =   0.0175439
        k(   57) = (  -0.9655172   0.9655172   0.9655172), wk =   0.0175439

     Dense  grid:  5335021 G-vectors     FFT dimensions: ( 243, 243, 243)

     Smooth grid:  1672665 G-vectors     FFT dimensions: ( 180, 180, 180)

     Estimated max dynamical RAM per process >      21.34 GB

     Estimated total dynamical RAM >     682.94 GB

     The potential is recalculated from file :
     ./GaAs.save/charge-density

     Starting wfcs are 1664 randomized atomic wfcs

     Band Structure Calculation
     Davidson diagonalization with overlap
     c_bands:  5 eigenvalues not converged
     c_bands:  5 eigenvalues not converged
     c_bands:  3 eigenvalues not converged
     c_bands:  3 eigenvalues not converged
     c_bands:  3 eigenvalues not converged
     c_bands:  3 eigenvalues not converged
     c_bands:  3 eigenvalues not converged
     c_bands:  2 eigenvalues not converged
     c_bands:  4 eigenvalues not converged
     c_bands:  4 eigenvalues not converged

===================================================================================
=   BAD TERMINATION OF ONE OF YOUR APPLICATION PROCESSES
=   RANK 0 PID 2184406 RUNNING AT n061
=   KILLED BY SIGNAL: 9 (Killed)
===================================================================================

===================================================================================
=   BAD TERMINATION OF ONE OF YOUR APPLICATION PROCESSES
=   RANK 1 PID 2184407 RUNNING AT n061
=   KILLED BY SIGNAL: 9 (Killed)
===================================================================================

===================================================================================
=   BAD TERMINATION OF ONE OF YOUR APPLICATION PROCESSES
=   RANK 2 PID 2184408 RUNNING AT n061
=   KILLED BY SIGNAL: 9 (Killed)
===================================================================================

===================================================================================
=   BAD TERMINATION OF ONE OF YOUR APPLICATION PROCESSES
=   RANK 3 PID 2184409 RUNNING AT n061
=   KILLED BY SIGNAL: 9 (Killed)
===================================================================================

===================================================================================
=   BAD TERMINATION OF ONE OF YOUR APPLICATION PROCESSES
=   RANK 4 PID 2184410 RUNNING AT n061
=   KILLED BY SIGNAL: 9 (Killed)
===================================================================================

===================================================================================
=   BAD TERMINATION OF ONE OF YOUR APPLICATION PROCESSES
=   RANK 5 PID 2184411 RUNNING AT n061
=   KILLED BY SIGNAL: 9 (Killed)
===================================================================================

===================================================================================
=   BAD TERMINATION OF ONE OF YOUR APPLICATION PROCESSES
=   RANK 6 PID 2184412 RUNNING AT n061
=   KILLED BY SIGNAL: 9 (Killed)
===================================================================================

===================================================================================
=   BAD TERMINATION OF ONE OF YOUR APPLICATION PROCESSES
=   RANK 7 PID 2184413 RUNNING AT n061
=   KILLED BY SIGNAL: 9 (Killed)
===================================================================================

===================================================================================
=   BAD TERMINATION OF ONE OF YOUR APPLICATION PROCESSES
=   RANK 8 PID 2184414 RUNNING AT n061
=   KILLED BY SIGNAL: 9 (Killed)
===================================================================================

===================================================================================
=   BAD TERMINATION OF ONE OF YOUR APPLICATION PROCESSES
=   RANK 9 PID 2184415 RUNNING AT n061
=   KILLED BY SIGNAL: 9 (Killed)
===================================================================================

===================================================================================
=   BAD TERMINATION OF ONE OF YOUR APPLICATION PROCESSES
=   RANK 10 PID 2184416 RUNNING AT n061
=   KILLED BY SIGNAL: 9 (Killed)
===================================================================================

===================================================================================
=   BAD TERMINATION OF ONE OF YOUR APPLICATION PROCESSES
=   RANK 11 PID 2184417 RUNNING AT n061
=   KILLED BY SIGNAL: 9 (Killed)
===================================================================================

===================================================================================
=   BAD TERMINATION OF ONE OF YOUR APPLICATION PROCESSES
=   RANK 12 PID 2184418 RUNNING AT n061
=   KILLED BY SIGNAL: 9 (Killed)
===================================================================================

===================================================================================
=   BAD TERMINATION OF ONE OF YOUR APPLICATION PROCESSES
=   RANK 13 PID 2184419 RUNNING AT n061
=   KILLED BY SIGNAL: 9 (Killed)
===================================================================================

===================================================================================
=   BAD TERMINATION OF ONE OF YOUR APPLICATION PROCESSES
=   RANK 14 PID 2184420 RUNNING AT n061
=   KILLED BY SIGNAL: 9 (Killed)
===================================================================================

===================================================================================
=   BAD TERMINATION OF ONE OF YOUR APPLICATION PROCESSES
=   RANK 15 PID 2184421 RUNNING AT n061
=   KILLED BY SIGNAL: 9 (Killed)
===================================================================================

===================================================================================
=   BAD TERMINATION OF ONE OF YOUR APPLICATION PROCESSES
=   RANK 16 PID 2184422 RUNNING AT n061
=   KILLED BY SIGNAL: 9 (Killed)
===================================================================================

===================================================================================
=   BAD TERMINATION OF ONE OF YOUR APPLICATION PROCESSES
=   RANK 17 PID 2184423 RUNNING AT n061
=   KILLED BY SIGNAL: 9 (Killed)
===================================================================================

===================================================================================
=   BAD TERMINATION OF ONE OF YOUR APPLICATION PROCESSES
=   RANK 18 PID 2184424 RUNNING AT n061
=   KILLED BY SIGNAL: 9 (Killed)
===================================================================================

===================================================================================
=   BAD TERMINATION OF ONE OF YOUR APPLICATION PROCESSES
=   RANK 19 PID 2184425 RUNNING AT n061
=   KILLED BY SIGNAL: 9 (Killed)
===================================================================================

===================================================================================
=   BAD TERMINATION OF ONE OF YOUR APPLICATION PROCESSES
=   RANK 20 PID 2184426 RUNNING AT n061
=   KILLED BY SIGNAL: 9 (Killed)
===================================================================================

===================================================================================
=   BAD TERMINATION OF ONE OF YOUR APPLICATION PROCESSES
=   RANK 21 PID 2184427 RUNNING AT n061
=   KILLED BY SIGNAL: 9 (Killed)
===================================================================================

===================================================================================
=   BAD TERMINATION OF ONE OF YOUR APPLICATION PROCESSES
=   RANK 22 PID 2184428 RUNNING AT n061
=   KILLED BY SIGNAL: 9 (Killed)
===================================================================================

===================================================================================
=   BAD TERMINATION OF ONE OF YOUR APPLICATION PROCESSES
=   RANK 23 PID 2184429 RUNNING AT n061
=   KILLED BY SIGNAL: 9 (Killed)
===================================================================================

===================================================================================
=   BAD TERMINATION OF ONE OF YOUR APPLICATION PROCESSES
=   RANK 24 PID 2184430 RUNNING AT n061
=   KILLED BY SIGNAL: 9 (Killed)
===================================================================================

===================================================================================
=   BAD TERMINATION OF ONE OF YOUR APPLICATION PROCESSES
=   RANK 25 PID 2184431 RUNNING AT n061
=   KILLED BY SIGNAL: 9 (Killed)
===================================================================================

===================================================================================
=   BAD TERMINATION OF ONE OF YOUR APPLICATION PROCESSES
=   RANK 26 PID 2184432 RUNNING AT n061
=   KILLED BY SIGNAL: 9 (Killed)
===================================================================================

===================================================================================
=   BAD TERMINATION OF ONE OF YOUR APPLICATION PROCESSES
=   RANK 27 PID 2184433 RUNNING AT n061
=   KILLED BY SIGNAL: 9 (Killed)
===================================================================================

===================================================================================
=   BAD TERMINATION OF ONE OF YOUR APPLICATION PROCESSES
=   RANK 28 PID 2184434 RUNNING AT n061
=   KILLED BY SIGNAL: 9 (Killed)
===================================================================================

===================================================================================
=   BAD TERMINATION OF ONE OF YOUR APPLICATION PROCESSES
=   RANK 29 PID 2184435 RUNNING AT n061
=   KILLED BY SIGNAL: 9 (Killed)
===================================================================================

===================================================================================
=   BAD TERMINATION OF ONE OF YOUR APPLICATION PROCESSES
=   RANK 30 PID 2184436 RUNNING AT n061
=   KILLED BY SIGNAL: 9 (Killed)
===================================================================================

===================================================================================
=   BAD TERMINATION OF ONE OF YOUR APPLICATION PROCESSES
=   RANK 31 PID 2184437 RUNNING AT n061
=   KILLED BY SIGNAL: 9 (Killed)
===================================================================================
