
     Program PWSCF v.7.0 starts on 26May2024 at 18:32:46 

     This program is part of the open-source Quantum ESPRESSO suite
     for quantum simulation of materials; please cite
         "P. Giannozzi et al., J. Phys.:Condens. Matter 21 395502 (2009);
         "P. Giannozzi et al., J. Phys.:Condens. Matter 29 465901 (2017);
         "P. Giannozzi et al., J. Chem. Phys. 152 154105 (2020);
          URL http://www.quantum-espresso.org", 
     in publications or presentations arising from this work. More details at
     http://www.quantum-espresso.org/quote

     Parallel version (MPI), running on    32 processors

     MPI processes distributed on     1 nodes
     R & G space division:  proc/nbgrp/npool/nimage =      32
     243191 MiB available memory on the printing compute node when the environment starts
 
     Waiting for input...
     Reading input from standard input

     Current dimensions of program PWSCF are:
     Max number of different atomic species (ntypx) = 10
     Max number of k-points (npk) =  40000
     Max angular momentum in pseudopotentials (lmaxx) =  4
     file Ga.rel-pz-dn-rrkjus_psl.0.2.UPF: wavefunction(s)  4S 3D 3D renormalized
     Found identity + (  0.0000  0.0000  0.2500) symmetry
     This is a supercell, fractional translations are disabled

     Subspace diagonalization in iterative solution of the eigenvalue problem:
     one sub-group per band group will be used
     scalapack distributed-memory algorithm (size of sub-group:  5*  5 procs)

 
     Parallelization info
     --------------------
     sticks:   dense  smooth     PW     G-vecs:    dense   smooth      PW
     Min        1258     581    150               166718    52269    6868
     Max        1259     582    151               166721    52272    6870
     Sum       40267   18601   4807              5335021  1672665  219819
 
     Using Slab Decomposition
 


     bravais-lattice index     =            2
     lattice parameter (alat)  =      42.4055  a.u.
     unit-cell volume          =   19063.6110 (a.u.)^3
     number of atoms/cell      =          128
     number of atomic types    =            2
     number of electrons       =      1152.00
     number of Kohn-Sham states=         1382
     kinetic-energy cutoff     =      75.0000  Ry
     charge density cutoff     =     650.0000  Ry
     scf convergence threshold =      1.0E-08
     mixing beta               =       0.3000
     number of iterations used =            8  plain     mixing
     Exchange-correlation= LDA
                           (   1   1   0   0   0   0   0)
     Non magnetic calculation with spin-orbit


     celldm(1)=  42.405454  celldm(2)=   0.000000  celldm(3)=   0.000000
     celldm(4)=   0.000000  celldm(5)=   0.000000  celldm(6)=   0.000000

     crystal axes: (cart. coord. in units of alat)
               a(1) = (  -0.500000   0.000000   0.500000 )  
               a(2) = (   0.000000   0.500000   0.500000 )  
               a(3) = (  -0.500000   0.500000   0.000000 )  

     reciprocal axes: (cart. coord. in units 2 pi/alat)
               b(1) = ( -1.000000 -1.000000  1.000000 )  
               b(2) = (  1.000000  1.000000  1.000000 )  
               b(3) = ( -1.000000  1.000000 -1.000000 )  


     PseudoPot. # 1 for As read from file:
     input/As.rel-pz-n-rrkjus_psl.0.2.UPF
     MD5 check sum: d366ee44a4414f2f25e25d92dfa1c56c
     Pseudo is Ultrasoft + core correction, Zval =  5.0
     Generated using "atomic" code by A. Dal Corso  v.5.0.2 svn rev. 9415
     Using radial grid of 1209 points,  6 beta functions with: 
                l(1) =   0
                l(2) =   0
                l(3) =   1
                l(4) =   1
                l(5) =   1
                l(6) =   1
     Q(r) pseudized with 0 coefficients 


     PseudoPot. # 2 for Ga read from file:
     input/Ga.rel-pz-dn-rrkjus_psl.0.2.UPF
     MD5 check sum: f483e69cb874fa1f04bd3077f714b60c
     Pseudo is Ultrasoft + core correction, Zval = 13.0
     Generated using "atomic" code by A. Dal Corso  v.5.0.2 svn rev. 9415
     Using radial grid of 1205 points, 10 beta functions with: 
                l(1) =   0
                l(2) =   0
                l(3) =   1
                l(4) =   1
                l(5) =   1
                l(6) =   1
                l(7) =   2
                l(8) =   2
                l(9) =   2
               l(10) =   2
     Q(r) pseudized with 0 coefficients 


     atomic species   valence    mass     pseudopotential
        As             5.00    74.92160     As( 1.00)
        Ga            13.00    69.72000     Ga( 1.00)

     No symmetry found



   Cartesian axes

     site n.     atom                  positions (alat units)
         1           Ga  tau(   1) = (   0.0000000   0.0000000   0.0000000  )
         2           As  tau(   2) = (  -0.0625000   0.0625000   0.0625000  )
         3           Ga  tau(   3) = (  -0.1250000   0.1250000   0.0000000  )
         4           As  tau(   4) = (  -0.1875000   0.1875000   0.0625000  )
         5           Ga  tau(   5) = (  -0.2500000   0.2500000   0.0000000  )
         6           As  tau(   6) = (  -0.3125000   0.3125000   0.0625000  )
         7           Ga  tau(   7) = (  -0.3750000   0.3750000   0.0000000  )
         8           As  tau(   8) = (  -0.4375000   0.4375000   0.0625000  )
         9           Ga  tau(   9) = (   0.0000000   0.1250000   0.1250000  )
        10           As  tau(  10) = (  -0.0625000   0.1875000   0.1875000  )
        11           Ga  tau(  11) = (  -0.1250000   0.2500000   0.1250000  )
        12           As  tau(  12) = (  -0.1875000   0.3125000   0.1875000  )
        13           Ga  tau(  13) = (  -0.2500000   0.3750000   0.1250000  )
        14           As  tau(  14) = (  -0.3125000   0.4375000   0.1875000  )
        15           Ga  tau(  15) = (  -0.3750000   0.5000000   0.1250000  )
        16           As  tau(  16) = (  -0.4375000   0.5625000   0.1875000  )
        17           Ga  tau(  17) = (   0.0000000   0.2500000   0.2500000  )
        18           As  tau(  18) = (  -0.0625000   0.3125000   0.3125000  )
        19           Ga  tau(  19) = (  -0.1250000   0.3750000   0.2500000  )
        20           As  tau(  20) = (  -0.1875000   0.4375000   0.3125000  )
        21           Ga  tau(  21) = (  -0.2500000   0.5000000   0.2500000  )
        22           As  tau(  22) = (  -0.3125000   0.5625000   0.3125000  )
        23           Ga  tau(  23) = (  -0.3750000   0.6250000   0.2500000  )
        24           As  tau(  24) = (  -0.4375000   0.6875000   0.3125000  )
        25           Ga  tau(  25) = (   0.0000000   0.3750000   0.3750000  )
        26           As  tau(  26) = (  -0.0625000   0.4375000   0.4375000  )
        27           Ga  tau(  27) = (  -0.1250000   0.5000000   0.3750000  )
        28           As  tau(  28) = (  -0.1875000   0.5625000   0.4375000  )
        29           Ga  tau(  29) = (  -0.2500000   0.6250000   0.3750000  )
        30           As  tau(  30) = (  -0.3125000   0.6875000   0.4375000  )
        31           Ga  tau(  31) = (  -0.3750000   0.7500000   0.3750000  )
        32           As  tau(  32) = (  -0.4375000   0.8125000   0.4375000  )
        33           Ga  tau(  33) = (  -0.1250000   0.0000000   0.1250000  )
        34           As  tau(  34) = (  -0.1875000   0.0625000   0.1875000  )
        35           Ga  tau(  35) = (  -0.2500000   0.1250000   0.1250000  )
        36           As  tau(  36) = (  -0.3125000   0.1875000   0.1875000  )
        37           Ga  tau(  37) = (  -0.3750000   0.2500000   0.1250000  )
        38           As  tau(  38) = (  -0.4375000   0.3125000   0.1875000  )
        39           Ga  tau(  39) = (  -0.5000000   0.3750000   0.1250000  )
        40           As  tau(  40) = (  -0.5625000   0.4375000   0.1875000  )
        41           Ga  tau(  41) = (  -0.1250000   0.1250000   0.2500000  )
        42           As  tau(  42) = (  -0.1875000   0.1875000   0.3125000  )
        43           Ga  tau(  43) = (  -0.2500000   0.2500000   0.2500000  )
        44           As  tau(  44) = (  -0.3125000   0.3125000   0.3125000  )
        45           Ga  tau(  45) = (  -0.3750000   0.3750000   0.2500000  )
        46           As  tau(  46) = (  -0.4375000   0.4375000   0.3125000  )
        47           Ga  tau(  47) = (  -0.5000000   0.5000000   0.2500000  )
        48           As  tau(  48) = (  -0.5625000   0.5625000   0.3125000  )
        49           Ga  tau(  49) = (  -0.1250000   0.2500000   0.3750000  )
        50           As  tau(  50) = (  -0.1875000   0.3125000   0.4375000  )
        51           Ga  tau(  51) = (  -0.2500000   0.3750000   0.3750000  )
        52           As  tau(  52) = (  -0.3125000   0.4375000   0.4375000  )
        53           Ga  tau(  53) = (  -0.3750000   0.5000000   0.3750000  )
        54           As  tau(  54) = (  -0.4375000   0.5625000   0.4375000  )
        55           Ga  tau(  55) = (  -0.5000000   0.6250000   0.3750000  )
        56           As  tau(  56) = (  -0.5625000   0.6875000   0.4375000  )
        57           Ga  tau(  57) = (  -0.1250000   0.3750000   0.5000000  )
        58           As  tau(  58) = (  -0.1875000   0.4375000   0.5625000  )
        59           Ga  tau(  59) = (  -0.2500000   0.5000000   0.5000000  )
        60           As  tau(  60) = (  -0.3125000   0.5625000   0.5625000  )
        61           Ga  tau(  61) = (  -0.3750000   0.6250000   0.5000000  )
        62           As  tau(  62) = (  -0.4375000   0.6875000   0.5625000  )
        63           Ga  tau(  63) = (  -0.5000000   0.7500000   0.5000000  )
        64           As  tau(  64) = (  -0.5625000   0.8125000   0.5625000  )
        65           Ga  tau(  65) = (  -0.2500000   0.0000000   0.2500000  )
        66           As  tau(  66) = (  -0.3125000   0.0625000   0.3125000  )
        67           Ga  tau(  67) = (  -0.3750000   0.1250000   0.2500000  )
        68           As  tau(  68) = (  -0.4375000   0.1875000   0.3125000  )
        69           Ga  tau(  69) = (  -0.5000000   0.2500000   0.2500000  )
        70           As  tau(  70) = (  -0.5625000   0.3125000   0.3125000  )
        71           Ga  tau(  71) = (  -0.6250000   0.3750000   0.2500000  )
        72           As  tau(  72) = (  -0.6875000   0.4375000   0.3125000  )
        73           Ga  tau(  73) = (  -0.2500000   0.1250000   0.3750000  )
        74           As  tau(  74) = (  -0.3125000   0.1875000   0.4375000  )
        75           Ga  tau(  75) = (  -0.3750000   0.2500000   0.3750000  )
        76           As  tau(  76) = (  -0.4375000   0.3125000   0.4375000  )
        77           Ga  tau(  77) = (  -0.5000000   0.3750000   0.3750000  )
        78           As  tau(  78) = (  -0.5625000   0.4375000   0.4375000  )
        79           Ga  tau(  79) = (  -0.6250000   0.5000000   0.3750000  )
        80           As  tau(  80) = (  -0.6875000   0.5625000   0.4375000  )
        81           Ga  tau(  81) = (  -0.2500000   0.2500000   0.5000000  )
        82           As  tau(  82) = (  -0.3125000   0.3125000   0.5625000  )
        83           Ga  tau(  83) = (  -0.3750000   0.3750000   0.5000000  )
        84           As  tau(  84) = (  -0.4375000   0.4375000   0.5625000  )
        85           Ga  tau(  85) = (  -0.5000000   0.5000000   0.5000000  )
        86           As  tau(  86) = (  -0.5625000   0.5625000   0.5625000  )
        87           Ga  tau(  87) = (  -0.6250000   0.6250000   0.5000000  )
        88           As  tau(  88) = (  -0.6875000   0.6875000   0.5625000  )
        89           Ga  tau(  89) = (  -0.2500000   0.3750000   0.6250000  )
        90           As  tau(  90) = (  -0.3125000   0.4375000   0.6875000  )
        91           Ga  tau(  91) = (  -0.3750000   0.5000000   0.6250000  )
        92           As  tau(  92) = (  -0.4375000   0.5625000   0.6875000  )
        93           Ga  tau(  93) = (  -0.5000000   0.6250000   0.6250000  )
        94           As  tau(  94) = (  -0.5625000   0.6875000   0.6875000  )
        95           Ga  tau(  95) = (  -0.6250000   0.7500000   0.6250000  )
        96           As  tau(  96) = (  -0.6875000   0.8125000   0.6875000  )
        97           Ga  tau(  97) = (  -0.3750000   0.0000000   0.3750000  )
        98           As  tau(  98) = (  -0.4375000   0.0625000   0.4375000  )
        99           Ga  tau(  99) = (  -0.5000000   0.1250000   0.3750000  )
       100           As  tau( 100) = (  -0.5625000   0.1875000   0.4375000  )
       101           Ga  tau( 101) = (  -0.6250000   0.2500000   0.3750000  )
       102           As  tau( 102) = (  -0.6875000   0.3125000   0.4375000  )
       103           Ga  tau( 103) = (  -0.7500000   0.3750000   0.3750000  )
       104           As  tau( 104) = (  -0.8125000   0.4375000   0.4375000  )
       105           Ga  tau( 105) = (  -0.3750000   0.1250000   0.5000000  )
       106           As  tau( 106) = (  -0.4375000   0.1875000   0.5625000  )
       107           Ga  tau( 107) = (  -0.5000000   0.2500000   0.5000000  )
       108           As  tau( 108) = (  -0.5625000   0.3125000   0.5625000  )
       109           Ga  tau( 109) = (  -0.6250000   0.3750000   0.5000000  )
       110           As  tau( 110) = (  -0.6875000   0.4375000   0.5625000  )
       111           Ga  tau( 111) = (  -0.7500000   0.5000000   0.5000000  )
       112           As  tau( 112) = (  -0.8125000   0.5625000   0.5625000  )
       113           Ga  tau( 113) = (  -0.3750000   0.2500000   0.6250000  )
       114           As  tau( 114) = (  -0.4375000   0.3125000   0.6875000  )
       115           Ga  tau( 115) = (  -0.5000000   0.3750000   0.6250000  )
       116           As  tau( 116) = (  -0.5625000   0.4375000   0.6875000  )
       117           Ga  tau( 117) = (  -0.6250000   0.5000000   0.6250000  )
       118           As  tau( 118) = (  -0.6875000   0.5625000   0.6875000  )
       119           Ga  tau( 119) = (  -0.7500000   0.6250000   0.6250000  )
       120           As  tau( 120) = (  -0.8125000   0.6875000   0.6875000  )
       121           Ga  tau( 121) = (  -0.3750000   0.3750000   0.7500000  )
       122           As  tau( 122) = (  -0.4375000   0.4375000   0.8125000  )
       123           Ga  tau( 123) = (  -0.5000000   0.5000000   0.7500000  )
       124           As  tau( 124) = (  -0.5625000   0.5625000   0.8125000  )
       125           Ga  tau( 125) = (  -0.6250000   0.6250000   0.7500000  )
       126           As  tau( 126) = (  -0.6875000   0.6875000   0.8125000  )
       127           Ga  tau( 127) = (  -0.7500000   0.7500000   0.7500000  )
       128           As  tau( 128) = (  -0.8125000   0.8125000   0.8125000  )

     number of k points=     8  Gaussian smearing, width (Ry)=  0.0020
                       cart. coord. in units 2pi/alat
        k(    1) = (   0.0000000   0.0000000   0.0000000), wk =   0.1250000
        k(    2) = (   0.5000000  -0.5000000   0.5000000), wk =   0.1250000
        k(    3) = (  -0.5000000  -0.5000000  -0.5000000), wk =   0.1250000
        k(    4) = (   0.0000000  -1.0000000   0.0000000), wk =   0.1250000
        k(    5) = (   0.5000000   0.5000000  -0.5000000), wk =   0.1250000
        k(    6) = (   1.0000000   0.0000000   0.0000000), wk =   0.1250000
        k(    7) = (   0.0000000   0.0000000  -1.0000000), wk =   0.1250000
        k(    8) = (   0.5000000  -0.5000000  -0.5000000), wk =   0.1250000

     Dense  grid:  5335021 G-vectors     FFT dimensions: ( 243, 243, 243)

     Smooth grid:  1672665 G-vectors     FFT dimensions: ( 180, 180, 180)

     Estimated max dynamical RAM per process >       4.79 GB

     Estimated total dynamical RAM >     153.34 GB

     Initial potential from superposition of free atoms

     starting charge    1151.8550, renormalised to    1152.0000
     Starting wfcs are 1664 randomized atomic wfcs

     total cpu time spent up to now is     1117.9 secs

     Self-consistent Calculation

     iteration #  1     ecut=    75.00 Ry     beta= 0.30
     Davidson diagonalization with overlap
     ethr =  1.00E-02,  avg # of iterations =  3.0

     Threshold (ethr) on eigenvalues was too large:
     Diagonalizing with lowered threshold

     Davidson diagonalization with overlap
     ethr =  2.53E-04,  avg # of iterations =  5.0

     total cpu time spent up to now is     7170.7 secs

     total energy              =  -12205.41602940 Ry
     estimated scf accuracy    <       2.87312662 Ry

     iteration #  2     ecut=    75.00 Ry     beta= 0.30
     Davidson diagonalization with overlap
     ethr =  2.49E-04,  avg # of iterations =  2.0

     total cpu time spent up to now is    10003.8 secs

     total energy              =  -12205.29283158 Ry
     estimated scf accuracy    <       0.82614192 Ry

     iteration #  3     ecut=    75.00 Ry     beta= 0.30
     Davidson diagonalization with overlap
     ethr =  7.17E-05,  avg # of iterations =  5.2

     total cpu time spent up to now is    13097.6 secs

     total energy              =  -12205.33577231 Ry
     estimated scf accuracy    <       0.11313899 Ry

     iteration #  4     ecut=    75.00 Ry     beta= 0.30
     Davidson diagonalization with overlap
     c_bands:  3 eigenvalues not converged
     c_bands:  5 eigenvalues not converged
     c_bands:  2 eigenvalues not converged
     ethr =  9.82E-06,  avg # of iterations = 17.9

     total cpu time spent up to now is    16334.7 secs

     total energy              =  -12205.34406761 Ry
     estimated scf accuracy    <       0.00164982 Ry

     iteration #  5     ecut=    75.00 Ry     beta= 0.30
     Davidson diagonalization with overlap
     c_bands:  1 eigenvalues not converged
     ethr =  1.43E-07,  avg # of iterations =  8.6

     total cpu time spent up to now is    20213.4 secs

     total energy              =  -12205.34439408 Ry
     estimated scf accuracy    <       0.00048453 Ry

     iteration #  6     ecut=    75.00 Ry     beta= 0.30
     Davidson diagonalization with overlap
     ethr =  4.21E-08,  avg # of iterations =  2.1

     total cpu time spent up to now is    23813.1 secs

     total energy              =  -12205.34449967 Ry
     estimated scf accuracy    <       0.00013365 Ry

     iteration #  7     ecut=    75.00 Ry     beta= 0.30
     Davidson diagonalization with overlap
     ethr =  1.16E-08,  avg # of iterations =  2.0

     total cpu time spent up to now is    26798.3 secs

     total energy              =  -12205.34451037 Ry
     estimated scf accuracy    <       0.00001871 Ry

     iteration #  8     ecut=    75.00 Ry     beta= 0.30
     Davidson diagonalization with overlap
     ethr =  1.62E-09,  avg # of iterations =  2.0

     total cpu time spent up to now is    30338.7 secs

     total energy              =  -12205.34451198 Ry
     estimated scf accuracy    <       0.00001021 Ry

     iteration #  9     ecut=    75.00 Ry     beta= 0.30
     Davidson diagonalization with overlap
     ethr =  8.87E-10,  avg # of iterations =  2.0

     total cpu time spent up to now is    33408.4 secs

     total energy              =  -12205.34451292 Ry
     estimated scf accuracy    <       0.00000179 Ry

     iteration # 10     ecut=    75.00 Ry     beta= 0.30
     Davidson diagonalization with overlap
     ethr =  1.55E-10,  avg # of iterations =  2.0

     total cpu time spent up to now is    36190.4 secs

     total energy              =  -12205.34451197 Ry
     estimated scf accuracy    <       0.00000088 Ry

     iteration # 11     ecut=    75.00 Ry     beta= 0.30
     Davidson diagonalization with overlap
     ethr =  7.65E-11,  avg # of iterations =  2.0

     total cpu time spent up to now is    39505.9 secs

     total energy              =  -12205.34451213 Ry
     estimated scf accuracy    <       0.00000010 Ry

     iteration # 12     ecut=    75.00 Ry     beta= 0.30
     Davidson diagonalization with overlap
     ethr =  8.41E-12,  avg # of iterations =  3.0

     total cpu time spent up to now is    42548.0 secs

     End of self-consistent calculation

          k = 0.0000 0.0000 0.0000 (209359 PWs)   bands (ev):

    -8.4909  -8.4909  -8.4909  -8.4909  -8.4909  -8.4909  -8.4789  -8.4789
    -8.4789  -8.4789  -8.4789  -8.4789  -8.4789  -8.4789  -8.4789  -8.4789
    -8.4789  -8.4789  -8.4789  -8.4789  -8.4789  -8.4789  -8.4789  -8.4789
    -8.4789  -8.4789  -8.4789  -8.4789  -8.4789  -8.4789  -8.4724  -8.4724
    -8.4724  -8.4724  -8.4724  -8.4724  -8.4724  -8.4724  -8.4724  -8.4724
    -8.4724  -8.4724  -8.4693  -8.4693  -8.4693  -8.4693  -8.4693  -8.4693
    -8.4497  -8.4497  -8.4497  -8.4497  -8.4497  -8.4497  -8.4497  -8.4497
    -8.4471  -8.4471  -8.4471  -8.4471  -8.4471  -8.4471  -8.4471  -8.4471
    -8.4471  -8.4471  -8.4471  -8.4471  -8.4431  -8.4431  -8.4431  -8.4431
    -8.4431  -8.4431  -8.4431  -8.4431  -8.4431  -8.4431  -8.4431  -8.4431
    -8.4431  -8.4431  -8.4431  -8.4431  -8.4431  -8.4431  -8.4431  -8.4431
    -8.4431  -8.4431  -8.4431  -8.4431  -8.4417  -8.4417  -8.4417  -8.4417
    -8.4417  -8.4417  -8.4390  -8.4390  -8.4390  -8.4390  -8.4390  -8.4390
    -8.4390  -8.4390  -8.4390  -8.4390  -8.4390  -8.4390  -8.4358  -8.4358
    -8.4358  -8.4358  -8.4358  -8.4358  -8.4358  -8.4358  -8.4358  -8.4358
    -8.4358  -8.4358  -8.4358  -8.4358  -8.4358  -8.4358  -8.4231  -8.4231
    -8.4231  -8.4231  -8.4231  -8.4231  -8.4231  -8.4231  -8.4229  -8.4229
    -8.4229  -8.4229  -8.4175  -8.4175  -8.4175  -8.4175  -8.4175  -8.4175
    -8.4175  -8.4175  -8.4167  -8.4167  -8.4167  -8.4167  -8.4167  -8.4167
    -8.4167  -8.4167  -8.4105  -8.4105  -8.4105  -8.4105  -8.4105  -8.4105
    -8.4105  -8.4105  -8.4105  -8.4105  -8.4105  -8.4105  -8.4097  -8.4097
    -8.4097  -8.4097  -8.4097  -8.4097  -8.4097  -8.4097  -8.4097  -8.4097
    -8.4097  -8.4097  -8.4080  -8.4080  -8.4080  -8.4080  -8.4080  -8.4080
    -8.4080  -8.4080  -8.4080  -8.4080  -8.4080  -8.4080  -8.4080  -8.4080
    -8.4080  -8.4080  -8.4080  -8.4080  -8.4080  -8.4080  -8.4080  -8.4080
    -8.4080  -8.4080  -8.4014  -8.4014  -8.4014  -8.4014  -8.4014  -8.4014
    -8.4014  -8.4014  -8.4014  -8.4014  -8.4014  -8.4014  -8.4005  -8.4005
    -8.4005  -8.4005  -8.4005  -8.4005  -8.3999  -8.3999  -8.3999  -8.3999
    -8.3999  -8.3999  -8.3979  -8.3979  -8.3979  -8.3979  -8.3979  -8.3979
    -8.3979  -8.3979  -8.3979  -8.3979  -8.3979  -8.3979  -8.3979  -8.3979
    -8.3979  -8.3979  -8.3979  -8.3979  -8.3979  -8.3979  -8.3979  -8.3979
    -8.3979  -8.3979  -8.3931  -8.3931  -8.3931  -8.3931  -8.3931  -8.3931
    -8.0675  -8.0675  -8.0675  -8.0675  -8.0675  -8.0675  -8.0497  -8.0497
    -8.0497  -8.0497  -8.0497  -8.0497  -8.0497  -8.0497  -8.0497  -8.0497
    -8.0497  -8.0497  -8.0497  -8.0497  -8.0497  -8.0497  -8.0497  -8.0497
    -8.0497  -8.0497  -8.0497  -8.0497  -8.0497  -8.0497  -8.0479  -8.0479
    -8.0479  -8.0479  -8.0479  -8.0479  -8.0479  -8.0479  -8.0479  -8.0479
    -8.0479  -8.0479  -8.0201  -8.0201  -8.0201  -8.0201  -8.0201  -8.0201
    -8.0122  -8.0122  -8.0122  -8.0122  -8.0122  -8.0122  -8.0122  -8.0122
    -8.0122  -8.0122  -8.0122  -8.0122  -8.0090  -8.0090  -8.0090  -8.0090
    -8.0090  -8.0090  -8.0090  -8.0090  -8.0062  -8.0062  -8.0062  -8.0062
    -8.0062  -8.0062  -8.0062  -8.0062  -8.0062  -8.0062  -8.0062  -8.0062
    -8.0062  -8.0062  -8.0062  -8.0062  -7.9988  -7.9988  -7.9867  -7.9867
    -7.9867  -7.9867  -7.9867  -7.9867  -7.9867  -7.9867  -7.9867  -7.9867
    -7.9867  -7.9867  -7.9867  -7.9867  -7.9867  -7.9867  -7.9867  -7.9867
    -7.9867  -7.9867  -7.9867  -7.9867  -7.9867  -7.9867  -7.9778  -7.9778
    -7.9778  -7.9778  -7.9778  -7.9778  -7.9778  -7.9778  -7.9778  -7.9778
    -7.9778  -7.9778  -7.9695  -7.9695  -7.9695  -7.9695  -7.9695  -7.9695
    -7.9669  -7.9669  -7.9669  -7.9669  -7.9669  -7.9669  -7.9669  -7.9669
    -7.9669  -7.9669  -7.9669  -7.9669  -7.9653  -7.9653  -7.9653  -7.9653
    -7.9653  -7.9653  -7.9653  -7.9653  -7.9559  -7.9559  -7.9559  -7.9559
    -7.9559  -7.9559  -7.9555  -7.9555  -7.9555  -7.9555  -7.9555  -7.9555
    -7.9555  -7.9555  -7.9555  -7.9555  -7.9555  -7.9555  -7.9555  -7.9555
    -7.9555  -7.9555  -7.9514  -7.9514  -7.9514  -7.9514  -7.9513  -7.9513
    -7.9513  -7.9513  -7.9513  -7.9513  -7.9513  -7.9513  -7.9513  -7.9513
    -7.9513  -7.9513  -7.9513  -7.9513  -7.9513  -7.9513  -7.9513  -7.9513
    -7.9513  -7.9513  -7.9492  -7.9492  -7.9492  -7.9492  -7.9492  -7.9492
    -7.9492  -7.9492  -7.9492  -7.9492  -7.9492  -7.9492  -7.9484  -7.9484
    -7.9484  -7.9484  -7.9484  -7.9484  -7.9484  -7.9484  -7.9484  -7.9484
    -7.9484  -7.9484  -7.9484  -7.9484  -7.9484  -7.9484  -7.9484  -7.9484
    -7.9484  -7.9484  -7.9484  -7.9484  -7.9484  -7.9484  -7.9443  -7.9443
    -7.9443  -7.9443  -7.9443  -7.9443  -7.9412  -7.9412  -7.9412  -7.9412
    -7.9412  -7.9412  -7.9412  -7.9412  -7.9412  -7.9412  -7.9412  -7.9412
    -7.9412  -7.9412  -7.9412  -7.9412  -7.9410  -7.9410  -7.9410  -7.9410
    -7.9410  -7.9410  -7.9380  -7.9380  -7.9380  -7.9380  -7.9380  -7.9380
    -7.9380  -7.9380  -7.9380  -7.9380  -7.9380  -7.9380  -7.9348  -7.9348
    -7.9348  -7.9348  -7.9348  -7.9348  -7.9348  -7.9348  -7.9283  -7.9283
    -7.9283  -7.9283  -7.9283  -7.9283  -7.9283  -7.9283  -7.9283  -7.9283
    -7.9283  -7.9283  -7.9283  -7.9283  -7.9283  -7.9283  -7.9283  -7.9283
    -7.9283  -7.9283  -7.9283  -7.9283  -7.9283  -7.9283  -7.9276  -7.9276
    -7.9276  -7.9276  -7.9276  -7.9276  -7.9276  -7.9276  -7.9270  -7.9270
    -7.9270  -7.9270  -7.9270  -7.9270  -7.9270  -7.9270  -7.9270  -7.9270
    -7.9270  -7.9270  -7.9265  -7.9265  -7.9265  -7.9265  -7.9265  -7.9265
    -7.9252  -7.9252  -7.9252  -7.9252  -7.9252  -7.9252  -7.9252  -7.9252
    -7.9252  -7.9252  -7.9252  -7.9252  -7.9246  -7.9246  -7.9246  -7.9246
    -7.9246  -7.9246  -7.9228  -7.9228  -7.9228  -7.9228  -7.9228  -7.9228
    -7.9228  -7.9228  -7.9228  -7.9228  -7.9228  -7.9228  -7.9228  -7.9228
    -7.9228  -7.9228  -7.9228  -7.9228  -7.9228  -7.9228  -7.9228  -7.9228
    -7.9228  -7.9228  -7.9225  -7.9225  -7.9225  -7.9225  -7.9225  -7.9225
    -7.9206  -7.9206  -7.9206  -7.9206  -7.9206  -7.9206  -7.9206  -7.9206
    -6.2093  -6.2093  -5.4943  -5.4943  -5.4943  -5.4943  -5.4943  -5.4943
    -5.4943  -5.4943  -5.4943  -5.4943  -5.4943  -5.4943  -5.4943  -5.4943
    -5.4943  -5.4943  -5.2527  -5.2527  -5.2527  -5.2527  -5.2527  -5.2527
    -5.2527  -5.2527  -5.2527  -5.2527  -5.2527  -5.2527  -4.5150  -4.5150
    -4.5150  -4.5150  -4.5150  -4.5150  -4.5150  -4.5150  -4.5150  -4.5150
    -4.5150  -4.5150  -4.5095  -4.5095  -4.5095  -4.5095  -4.5095  -4.5095
    -4.5095  -4.5095  -4.5095  -4.5095  -4.5095  -4.5095  -4.3769  -4.3769
    -4.3769  -4.3769  -4.3769  -4.3769  -4.3769  -4.3769  -4.0821  -4.0821
    -4.0821  -4.0821  -4.0821  -4.0821  -4.0821  -4.0821  -4.0821  -4.0821
    -4.0821  -4.0821  -4.0821  -4.0821  -4.0821  -4.0821  -4.0821  -4.0821
    -4.0821  -4.0821  -4.0821  -4.0821  -4.0821  -4.0821  -4.0791  -4.0791
    -4.0791  -4.0791  -4.0791  -4.0791  -4.0791  -4.0791  -4.0791  -4.0791
    -4.0791  -4.0791  -4.0791  -4.0791  -4.0791  -4.0791  -4.0791  -4.0791
    -4.0791  -4.0791  -4.0791  -4.0791  -4.0791  -4.0791  -3.6102  -3.6102
    -3.6102  -3.6102  -3.6102  -3.6102  -3.5455  -3.5455  -3.5455  -3.5455
    -3.5455  -3.5455  -3.5443  -3.5443  -3.5443  -3.5443  -3.5443  -3.5443
    -0.2543  -0.2543  -0.2543  -0.2543  -0.2543  -0.2543  -0.0921  -0.0921
    -0.0921  -0.0921  -0.0921  -0.0921  -0.0902  -0.0902  -0.0902  -0.0902
    -0.0902  -0.0902  -0.0902  -0.0902  -0.0330  -0.0330  -0.0330  -0.0330
    -0.0330  -0.0330   0.2884   0.2884   0.2884   0.2884   0.2884   0.2884
     0.2884   0.2884   0.2884   0.2884   0.2884   0.2884   0.2884   0.2884
     0.2884   0.2884   0.2884   0.2884   0.2884   0.2884   0.2884   0.2884
     0.2884   0.2884   0.3253   0.3253   0.3253   0.3253   0.3253   0.3253
     0.3253   0.3253   0.3253   0.3253   0.3253   0.3253   0.3253   0.3253
     0.3253   0.3253   0.3253   0.3253   0.3253   0.3253   0.3253   0.3253
     0.3253   0.3253   0.9333   0.9333   0.9333   0.9333   0.9333   0.9333
     0.9333   0.9333   0.9333   0.9333   0.9333   0.9333   0.9808   0.9808
     0.9808   0.9808   0.9808   0.9808   0.9808   0.9808   0.9808   0.9808
     0.9808   0.9808   2.4881   2.4881   2.4881   2.4881   2.4881   2.4881
     2.4881   2.4881   2.4881   2.4881   2.4881   2.4881   2.4881   2.4881
     2.4881   2.4881   2.5587   2.5587   2.5587   2.5587   2.5587   2.5587
     2.5587   2.5587   2.5587   2.5587   2.5587   2.5587   3.0011   3.0011
     3.0011   3.0011   3.0011   3.0011   3.1269   3.1269   3.1269   3.1269
     3.1269   3.1269   3.2031   3.2031   3.2031   3.2031   3.2031   3.2031
     3.2031   3.2031   3.2031   3.2031   3.2031   3.2031   3.2337   3.2337
     3.2337   3.2337   3.2337   3.2337   3.2672   3.2672   3.2672   3.2672
     3.2672   3.2672   3.2672   3.2672   3.2672   3.2672   3.2672   3.2672
     3.2767   3.2767   3.2767   3.2767   3.2767   3.2767   3.3468   3.3468
     3.3468   3.3468   3.3468   3.3468   3.3468   3.3468   3.3468   3.3468
     3.3468   3.3468   3.3468   3.3468   3.3468   3.3468   3.3468   3.3468
     3.3468   3.3468   3.3469   3.3469   3.3469   3.3469   3.3973   3.3973
     3.3973   3.3973   3.3973   3.3973   3.3973   3.3973   3.3973   3.3973
     3.3973   3.3973   3.3973   3.3973   3.3973   3.3973   3.3973   3.3973
     3.3973   3.3973   3.3973   3.3973   3.3973   3.3973   3.9258   3.9258
     3.9258   3.9258   3.9258   3.9258   4.0118   4.0118   4.0118   4.0118
     4.0118   4.0118   4.6288   4.6288   4.6288   4.6288   4.6288   4.6288
     4.6288   4.6288   4.6288   4.6288   4.6288   4.6288   4.6288   4.6288
     4.6288   4.6288   4.6288   4.6288   4.6288   4.6288   4.6288   4.6288
     4.6288   4.6288   4.6319   4.6319   4.6319   4.6319   4.6319   4.6319
     4.6319   4.6319   4.6319   4.6319   4.6319   4.6319   4.6319   4.6319
     4.6319   4.6319   4.6319   4.6319   4.6319   4.6319   4.6319   4.6319
     4.6319   4.6319   4.9286   4.9286   4.9286   4.9286   4.9286   4.9286
     4.9286   4.9286   4.9286   4.9286   4.9286   4.9286   5.0414   5.0414
     5.0414   5.0414   5.0414   5.0414   5.0414   5.0414   5.0414   5.0414
     5.0414   5.0414   5.4533   5.4533   5.4533   5.4533   5.4533   5.4533
     5.4533   5.4533   5.4775   5.4775   5.4775   5.4775   5.4775   5.4775
     5.4775   5.4775   5.4775   5.4775   5.4775   5.4775   5.4782   5.4782
     5.4782   5.4782   5.4782   5.4782   5.4782   5.4782   5.4782   5.4782
     5.4782   5.4782   5.6700   5.6700   5.6700   5.6700   5.6700   5.6700
     5.6700   5.6700   5.9283   5.9283   5.9283   5.9283   5.9283   5.9283
     5.9283   5.9283   5.9283   5.9283   5.9283   5.9283   5.9283   5.9283
     5.9283   5.9283   6.1470   6.1470   6.1470   6.1470   6.1470   6.1470
     6.1470   6.1470   6.1508   6.1508   6.1508   6.1508   6.1508   6.1508
     6.1508   6.1508   6.5126   6.5126   6.8644   6.8644   6.8644   6.8644
     7.2173   7.2173   7.6510   7.6510   7.6510   7.6510   7.6510   7.6510
     7.6510   7.6510   8.0391   8.0391   8.0391   8.0391   8.0391   8.0391
     8.1208   8.1208   8.1208   8.1208   8.1208   8.1208   8.1208   8.1208
     8.1208   8.1208   8.1208   8.1208   8.1208   8.1208   8.1208   8.1208
     8.2700   8.2700   8.2700   8.2700   8.2700   8.2700   8.6025   8.6025
     8.6025   8.6025   8.6025   8.6025   8.6025   8.6025   8.6025   8.6025
     8.6025   8.6025   8.8305   8.8305   8.8305   8.8305   8.8305   8.8305
     8.8305   8.8305   8.8305   8.8305   8.8305   8.8305   8.8305   8.8305
     8.8305   8.8305   8.8305   8.8305   8.8305   8.8305   8.8305   8.8305
     8.8305   8.8305   8.8368   8.8368   8.8368   8.8368   8.8368   8.8368
     8.8368   8.8368   8.8369   8.8369   8.8369   8.8369   8.8369   8.8369
     8.8369   8.8369   8.8369   8.8369   8.8369   8.8369   8.8369   8.8369
     8.8369   8.8369   9.4003   9.4003   9.4003   9.4003   9.4003   9.4003
     9.4003   9.4003   9.4003   9.4003   9.4003   9.4003   9.4331   9.4331
     9.4331   9.4331   9.4331   9.4331   9.4331   9.4331   9.4331   9.4331
     9.4331   9.4331   9.9558   9.9558   9.9558   9.9558   9.9558   9.9558
     9.9558   9.9558   9.9558   9.9558   9.9558   9.9558  10.2879  10.2879
    10.4911  10.4911  10.4911  10.4911  11.2474  11.2474  11.2474  11.2474
    11.2474  11.2474  11.2474  11.2474  11.2474  11.2474  11.2474  11.2474
    11.2474  11.2474  11.2475  11.2475  11.2487  11.2487  11.2487  11.2487
    11.2487  11.2487  11.3819  11.3819  11.3819  11.3820  11.3820  11.3820
    11.3825  11.3835  11.3849  11.3850  11.3850  11.3850  11.3850  11.3850
    11.3865  11.3865  11.3865  11.3865  11.3865  11.3866  11.3866  11.3866
    11.3866  11.3866  11.3866  11.3866  11.3866  11.3866  11.3866  11.3866
    11.3866  11.3866  11.3866  11.3866  11.3866  11.3866  11.3866  11.3866
    11.4536  11.4536  11.4536  11.4536  11.4536  11.4536  11.4713  11.4713
    11.4714  11.4714  11.4714  11.4714  11.4737  11.4739  11.4744  11.4746
    11.4746  11.4747  11.4747  11.4748  11.4748  11.4748  11.4749  11.4749
    11.4749  11.4749  11.4749  11.4749  11.4749  11.4749

          k = 0.5000-0.5000 0.5000 (209018 PWs)   bands (ev):

    -8.4870  -8.4870  -8.4870  -8.4870  -8.4870  -8.4870  -8.4870  -8.4870
    -8.4870  -8.4870  -8.4870  -8.4870  -8.4815  -8.4815  -8.4815  -8.4815
    -8.4815  -8.4815  -8.4793  -8.4793  -8.4793  -8.4793  -8.4793  -8.4793
    -8.4740  -8.4740  -8.4740  -8.4740  -8.4740  -8.4740  -8.4740  -8.4740
    -8.4740  -8.4740  -8.4740  -8.4740  -8.4677  -8.4677  -8.4677  -8.4677
    -8.4677  -8.4677  -8.4655  -8.4655  -8.4655  -8.4655  -8.4655  -8.4655
    -8.4544  -8.4544  -8.4544  -8.4544  -8.4544  -8.4544  -8.4542  -8.4542
    -8.4542  -8.4542  -8.4542  -8.4542  -8.4456  -8.4456  -8.4456  -8.4456
    -8.4456  -8.4456  -8.4455  -8.4455  -8.4455  -8.4455  -8.4438  -8.4438
    -8.4438  -8.4438  -8.4438  -8.4438  -8.4430  -8.4430  -8.4430  -8.4430
    -8.4430  -8.4430  -8.4430  -8.4430  -8.4430  -8.4430  -8.4430  -8.4430
    -8.4411  -8.4411  -8.4411  -8.4411  -8.4411  -8.4411  -8.4398  -8.4398
    -8.4398  -8.4398  -8.4398  -8.4398  -8.4396  -8.4396  -8.4396  -8.4396
    -8.4396  -8.4396  -8.4396  -8.4396  -8.4396  -8.4396  -8.4396  -8.4396
    -8.4360  -8.4360  -8.4360  -8.4360  -8.4360  -8.4360  -8.4338  -8.4338
    -8.4338  -8.4338  -8.4338  -8.4338  -8.4266  -8.4266  -8.4266  -8.4266
    -8.4242  -8.4242  -8.4204  -8.4204  -8.4196  -8.4196  -8.4182  -8.4182
    -8.4182  -8.4182  -8.4182  -8.4182  -8.4159  -8.4159  -8.4141  -8.4141
    -8.4141  -8.4141  -8.4141  -8.4141  -8.4137  -8.4137  -8.4137  -8.4137
    -8.4137  -8.4137  -8.4134  -8.4134  -8.4134  -8.4134  -8.4134  -8.4134
    -8.4132  -8.4132  -8.4132  -8.4132  -8.4132  -8.4132  -8.4096  -8.4096
    -8.4096  -8.4096  -8.4096  -8.4096  -8.4096  -8.4096  -8.4096  -8.4096
    -8.4096  -8.4096  -8.4092  -8.4092  -8.4092  -8.4092  -8.4092  -8.4092
    -8.4090  -8.4090  -8.4090  -8.4090  -8.4090  -8.4090  -8.4078  -8.4078
    -8.4078  -8.4078  -8.4078  -8.4078  -8.4036  -8.4036  -8.4036  -8.4036
    -8.4036  -8.4036  -8.4036  -8.4036  -8.4036  -8.4036  -8.4036  -8.4036
    -8.4035  -8.4035  -8.4035  -8.4035  -8.4035  -8.4035  -8.4032  -8.4032
    -8.4032  -8.4032  -8.4032  -8.4032  -8.4017  -8.4017  -8.4017  -8.4017
    -8.4017  -8.4017  -8.4017  -8.4017  -8.4017  -8.4017  -8.4017  -8.4017
    -8.3971  -8.3971  -8.3971  -8.3971  -8.3971  -8.3971  -8.3961  -8.3961
    -8.3961  -8.3961  -8.3961  -8.3961  -8.3939  -8.3939  -8.3939  -8.3939
    -8.3939  -8.3939  -8.3939  -8.3939  -8.3939  -8.3939  -8.3939  -8.3939
    -8.0607  -8.0607  -8.0607  -8.0607  -8.0607  -8.0607  -8.0607  -8.0607
    -8.0607  -8.0607  -8.0607  -8.0607  -8.0558  -8.0558  -8.0558  -8.0558
    -8.0557  -8.0557  -8.0473  -8.0473  -8.0473  -8.0473  -8.0473  -8.0473
    -8.0473  -8.0473  -8.0473  -8.0473  -8.0473  -8.0473  -8.0411  -8.0411
    -8.0411  -8.0411  -8.0411  -8.0411  -8.0361  -8.0361  -8.0361  -8.0361
    -8.0361  -8.0361  -8.0328  -8.0328  -8.0328  -8.0328  -8.0328  -8.0328
    -8.0280  -8.0280  -8.0280  -8.0280  -8.0280  -8.0280  -8.0161  -8.0161
    -8.0161  -8.0161  -8.0161  -8.0161  -8.0086  -8.0086  -8.0086  -8.0086
    -8.0015  -8.0015  -8.0015  -8.0015  -7.9997  -7.9997  -7.9997  -7.9997
    -7.9997  -7.9997  -7.9995  -7.9995  -7.9995  -7.9995  -7.9995  -7.9995
    -7.9994  -7.9994  -7.9994  -7.9994  -7.9994  -7.9994  -7.9910  -7.9910
    -7.9910  -7.9910  -7.9910  -7.9910  -7.9860  -7.9860  -7.9860  -7.9860
    -7.9860  -7.9860  -7.9822  -7.9822  -7.9822  -7.9822  -7.9822  -7.9822
    -7.9822  -7.9822  -7.9822  -7.9822  -7.9822  -7.9822  -7.9786  -7.9786
    -7.9786  -7.9786  -7.9786  -7.9786  -7.9786  -7.9786  -7.9786  -7.9786
    -7.9786  -7.9786  -7.9772  -7.9772  -7.9772  -7.9772  -7.9772  -7.9772
    -7.9677  -7.9677  -7.9677  -7.9677  -7.9677  -7.9677  -7.9627  -7.9627
    -7.9627  -7.9627  -7.9621  -7.9621  -7.9621  -7.9621  -7.9621  -7.9621
    -7.9614  -7.9614  -7.9614  -7.9614  -7.9614  -7.9614  -7.9606  -7.9606
    -7.9606  -7.9606  -7.9606  -7.9606  -7.9606  -7.9606  -7.9606  -7.9606
    -7.9606  -7.9606  -7.9567  -7.9567  -7.9567  -7.9567  -7.9567  -7.9567
    -7.9520  -7.9520  -7.9520  -7.9520  -7.9520  -7.9520  -7.9517  -7.9517
    -7.9517  -7.9517  -7.9517  -7.9517  -7.9517  -7.9517  -7.9517  -7.9517
    -7.9517  -7.9517  -7.9506  -7.9506  -7.9506  -7.9506  -7.9506  -7.9506
    -7.9493  -7.9493  -7.9493  -7.9493  -7.9493  -7.9493  -7.9493  -7.9493
    -7.9493  -7.9493  -7.9493  -7.9493  -7.9491  -7.9491  -7.9491  -7.9491
    -7.9491  -7.9491  -7.9479  -7.9479  -7.9479  -7.9479  -7.9479  -7.9479
    -7.9461  -7.9461  -7.9461  -7.9461  -7.9457  -7.9457  -7.9457  -7.9457
    -7.9457  -7.9457  -7.9452  -7.9452  -7.9452  -7.9452  -7.9452  -7.9452
    -7.9452  -7.9452  -7.9452  -7.9452  -7.9452  -7.9452  -7.9440  -7.9440
    -7.9440  -7.9440  -7.9440  -7.9440  -7.9440  -7.9440  -7.9440  -7.9440
    -7.9440  -7.9440  -7.9409  -7.9409  -7.9371  -7.9371  -7.9371  -7.9371
    -7.9371  -7.9371  -7.9370  -7.9370  -7.9370  -7.9370  -7.9370  -7.9370
    -7.9358  -7.9358  -7.9330  -7.9330  -7.9330  -7.9330  -7.9330  -7.9330
    -7.9329  -7.9329  -7.9329  -7.9329  -7.9329  -7.9329  -7.9321  -7.9321
    -7.9321  -7.9321  -7.9321  -7.9321  -7.9312  -7.9312  -7.9312  -7.9312
    -7.9312  -7.9312  -7.9287  -7.9287  -7.9287  -7.9287  -7.9287  -7.9287
    -7.9287  -7.9287  -7.9287  -7.9287  -7.9287  -7.9287  -7.9286  -7.9286
    -7.9286  -7.9286  -7.9286  -7.9286  -7.9267  -7.9267  -7.9267  -7.9267
    -7.9267  -7.9267  -7.9263  -7.9263  -7.9263  -7.9263  -7.9263  -7.9263
    -7.9263  -7.9263  -7.9263  -7.9263  -7.9263  -7.9263  -7.9263  -7.9263
    -7.9258  -7.9258  -7.9258  -7.9258  -7.9258  -7.9258  -7.9255  -7.9255
    -7.9255  -7.9255  -7.9255  -7.9255  -7.9255  -7.9255  -7.9255  -7.9255
    -7.9255  -7.9255  -7.9225  -7.9225  -7.9225  -7.9225  -7.9225  -7.9225
    -7.9224  -7.9224  -7.9224  -7.9224  -7.9224  -7.9224  -7.9223  -7.9223
    -7.9223  -7.9223  -7.9223  -7.9223  -7.9223  -7.9223  -7.9223  -7.9223
    -7.9223  -7.9223  -7.9220  -7.9220  -7.9220  -7.9220  -7.9220  -7.9220
    -7.9212  -7.9212  -7.9207  -7.9207  -7.9207  -7.9207  -7.9207  -7.9207
    -6.0208  -6.0208  -6.0208  -6.0208  -5.5443  -5.5443  -5.5442  -5.5442
    -5.5442  -5.5442  -5.5419  -5.5419  -5.5419  -5.5419  -5.5419  -5.5419
    -5.1204  -5.1204  -5.1204  -5.1204  -5.1204  -5.1204  -5.1161  -5.1161
    -5.1161  -5.1161  -5.1161  -5.1161  -4.7854  -4.7854  -4.7854  -4.7854
    -4.6889  -4.6889  -4.6889  -4.6889  -4.6889  -4.6889  -4.6859  -4.6859
    -4.6859  -4.6859  -4.6859  -4.6859  -4.3959  -4.3959  -4.3959  -4.3959
    -4.3959  -4.3959  -4.3959  -4.3959  -4.3959  -4.3959  -4.3959  -4.3959
    -4.3914  -4.3914  -4.3914  -4.3914  -4.3914  -4.3914  -4.3914  -4.3914
    -4.3914  -4.3914  -4.3914  -4.3914  -4.3032  -4.3032  -4.3032  -4.3032
    -4.3032  -4.3032  -4.3000  -4.3000  -4.3000  -4.3000  -4.3000  -4.3000
    -3.9828  -3.9828  -3.9828  -3.9828  -3.9828  -3.9828  -3.9799  -3.9799
    -3.9799  -3.9799  -3.9799  -3.9799  -3.7771  -3.7771  -3.7771  -3.7771
    -3.7771  -3.7771  -3.7765  -3.7765  -3.7765  -3.7765  -3.7765  -3.7765
    -3.7171  -3.7171  -3.7171  -3.7171  -3.7171  -3.7171  -3.7171  -3.7171
    -3.7171  -3.7171  -3.7171  -3.7171  -3.7164  -3.7164  -3.7164  -3.7164
    -3.7164  -3.7164  -3.7164  -3.7164  -3.7164  -3.7164  -3.7164  -3.7164
     0.0145   0.0145   0.0145   0.0145   0.0145   0.0145   0.0145   0.0145
     0.0145   0.0145   0.0145   0.0145   0.0154   0.0154   0.0154   0.0154
     0.0154   0.0154   0.0412   0.0412   0.0412   0.0412   0.0412   0.0412
     0.0654   0.0654   0.0654   0.0654   0.0654   0.0654   0.0660   0.0660
     0.0660   0.0660   0.0660   0.0660   0.0660   0.0660   0.0660   0.0660
     0.0660   0.0660   0.0842   0.0842   0.0842   0.0842   0.0842   0.0842
     0.1478   0.1478   0.1478   0.1478   0.1478   0.1478   0.1955   0.1955
     0.1955   0.1955   0.1955   0.1955   0.6810   0.6810   0.6810   0.6810
     0.6810   0.6810   0.6810   0.6810   0.6810   0.6810   0.6810   0.6810
     0.6905   0.6905   0.6905   0.6905   0.7175   0.7175   0.7175   0.7175
     0.7176   0.7176   0.7176   0.7176   0.7176   0.7176   0.7176   0.7176
     1.3403   1.3403   1.3403   1.3403   1.3403   1.3403   1.3623   1.3623
     1.3623   1.3623   1.3623   1.3623   1.7644   1.7644   1.7644   1.7644
     1.7644   1.7644   1.7881   1.7881   1.7881   1.7881   1.7881   1.7881
     2.8950   2.8950   2.8950   2.8950   2.8950   2.8950   2.8950   2.8950
     2.8950   2.8950   2.8950   2.8950   2.9137   2.9137   2.9137   2.9137
     2.9137   2.9137   2.9603   2.9603   2.9603   2.9603   2.9603   2.9603
     2.9603   2.9603   2.9603   2.9603   2.9603   2.9603   2.9725   2.9725
     2.9725   2.9725   2.9725   2.9725   3.0087   3.0087   3.0087   3.0087
     3.0087   3.0087   3.0249   3.0249   3.0249   3.0249   3.0249   3.0249
     3.4814   3.4814   3.4814   3.4814   3.4814   3.4814   3.5200   3.5200
     3.5200   3.5200   3.5200   3.5200   3.5329   3.5329   3.5329   3.5329
     3.5329   3.5329   3.5329   3.5329   3.5329   3.5329   3.5329   3.5329
     3.5915   3.5915   3.5915   3.5915   3.5915   3.5915   3.5915   3.5915
     3.5915   3.5915   3.5915   3.5915   3.9670   3.9670   3.9670   3.9670
     3.9670   3.9670   3.9670   3.9670   3.9670   3.9670   3.9670   3.9670
     3.9956   3.9956   3.9956   3.9956   3.9956   3.9956   3.9956   3.9956
     3.9956   3.9956   3.9956   3.9956   4.1452   4.1452   4.1452   4.1452
     4.1452   4.1452   4.1509   4.1509   4.1509   4.1509   4.1509   4.1509
     4.1968   4.1968   4.1968   4.1968   4.1968   4.1968   4.2405   4.2405
     4.2405   4.2405   4.2405   4.2405   4.4269   4.4269   4.4269   4.4269
     4.4269   4.4269   4.4651   4.4651   4.4651   4.4651   4.4651   4.4651
     4.5167   4.5167   4.5167   4.5167   4.5167   4.5167   4.5635   4.5635
     4.5635   4.5635   4.5635   4.5635   4.6474   4.6474   4.6474   4.6474
     4.6474   4.6474   4.6569   4.6569   4.6569   4.6569   4.6569   4.6569
     4.7137   4.7137   4.7137   4.7137   4.9217   4.9217   4.9217   4.9217
     4.9217   4.9217   4.9217   4.9217   4.9217   4.9217   4.9217   4.9217
     4.9361   4.9361   4.9361   4.9361   4.9361   4.9361   4.9366   4.9366
     4.9366   4.9366   4.9366   4.9366   4.9542   4.9542   4.9542   4.9542
     4.9542   4.9542   4.9542   4.9542   4.9542   4.9542   4.9542   4.9542
     5.2464   5.2464   5.2464   5.2464   5.2464   5.2464   5.2505   5.2505
     5.2505   5.2505   5.2505   5.2505   5.4295   5.4295   5.4295   5.4295
     5.4295   5.4295   5.4780   5.4780   5.4780   5.4780   5.4780   5.4780
     5.5786   5.5786   5.5786   5.5786   5.6060   5.6060   5.6060   5.6060
     5.6060   5.6060   5.6212   5.6212   5.6212   5.6212   5.6212   5.6212
     5.7949   5.7949   5.7973   5.7973   6.0000   6.0000   6.0000   6.0000
     6.0000   6.0000   6.0000   6.0000   6.0000   6.0000   6.0000   6.0000
     6.3863   6.3863   6.3863   6.3863   6.6109   6.6109   6.6140   6.6140
     7.7791   7.7791   7.7791   7.7791   8.3017   8.3017   8.3017   8.3017
     8.3017   8.3017   8.3027   8.3027   8.3027   8.3027   8.3067   8.3067
     8.3067   8.3067   8.3067   8.3067   8.7391   8.7391   8.7391   8.7391
     8.7391   8.7391   8.7406   8.7406   8.7406   8.7406   8.7406   8.7406
     8.7452   8.7452   8.7452   8.7452   8.7452   8.7452   8.7691   8.7691
     8.7691   8.7691   8.7691   8.7691   8.9947   8.9947   8.9947   8.9947
     8.9947   8.9947   9.0386   9.0386   9.0386   9.0386   9.0386   9.0386
     9.0490   9.0490   9.0490   9.0490   9.0490   9.0490   9.0636   9.0636
     9.0636   9.0636   9.0636   9.0636   9.2145   9.2145   9.2145   9.2145
     9.2145   9.2145   9.2646   9.2646   9.2646   9.2646   9.2646   9.2646
     9.2950   9.2950   9.2950   9.2950   9.2950   9.2950   9.3268   9.3268
     9.3268   9.3268   9.3268   9.3268   9.6409   9.6409   9.6409   9.6409
     9.6409   9.6409   9.6409   9.6409   9.6409   9.6409   9.6409   9.6409
     9.6716   9.6716   9.6716   9.6716   9.6716   9.6716   9.6716   9.6716
     9.6716   9.6716   9.6716   9.6716   9.7624   9.7624   9.7624   9.7624
     9.7624   9.7624   9.7624   9.7624   9.7624   9.7624   9.7624   9.7624
     9.8251   9.8251   9.8251   9.8251   9.8251   9.8251   9.8251   9.8251
     9.8251   9.8251   9.8251   9.8251   9.9848   9.9848   9.9848   9.9848
     9.9848   9.9848  10.0164  10.0164  10.0164  10.0164  10.0164  10.0164
    10.1112  10.1112  10.1112  10.1112  10.1112  10.1112  10.1260  10.1260
    10.1260  10.1260  10.1260  10.1260  10.7092  10.7092  10.7092  10.7092
    10.8567  10.8567  10.8582  10.8582  10.8597  10.8597  10.8597  10.8597
    10.8597  10.8597  10.8597  10.8597  10.8597  10.8597  10.8597  10.8597
    10.8908  10.8908  10.8908  10.8908  10.8908  10.8908  10.8908  10.8908
    10.8908  10.8908  10.8908  10.8908  10.9070  10.9070  10.9070  10.9070
    11.0096  11.0096  11.0096  11.0096  11.0096  11.0097  11.0185  11.0185
    11.0185  11.0185  11.0185  11.0186  11.3824  11.3825  11.3825  11.3825
    11.3825  11.3825  11.3826  11.3827  11.3829  11.3830  11.3834  11.3837
    11.4021  11.4022  11.4023  11.4024  11.4024  11.4027

          k =-0.5000-0.5000-0.5000 (209018 PWs)   bands (ev):

    -8.4870  -8.4870  -8.4870  -8.4870  -8.4870  -8.4870  -8.4870  -8.4870
    -8.4870  -8.4870  -8.4870  -8.4870  -8.4815  -8.4815  -8.4815  -8.4815
    -8.4815  -8.4815  -8.4793  -8.4793  -8.4793  -8.4793  -8.4793  -8.4793
    -8.4740  -8.4740  -8.4740  -8.4740  -8.4740  -8.4740  -8.4740  -8.4740
    -8.4740  -8.4740  -8.4740  -8.4740  -8.4677  -8.4677  -8.4677  -8.4677
    -8.4677  -8.4677  -8.4655  -8.4655  -8.4655  -8.4655  -8.4655  -8.4655
    -8.4544  -8.4544  -8.4544  -8.4544  -8.4544  -8.4544  -8.4542  -8.4542
    -8.4542  -8.4542  -8.4542  -8.4542  -8.4456  -8.4456  -8.4456  -8.4456
    -8.4456  -8.4456  -8.4455  -8.4455  -8.4455  -8.4455  -8.4438  -8.4438
    -8.4438  -8.4438  -8.4438  -8.4438  -8.4430  -8.4430  -8.4430  -8.4430
    -8.4430  -8.4430  -8.4430  -8.4430  -8.4430  -8.4430  -8.4430  -8.4430
    -8.4411  -8.4411  -8.4411  -8.4411  -8.4411  -8.4411  -8.4398  -8.4398
    -8.4398  -8.4398  -8.4398  -8.4398  -8.4396  -8.4396  -8.4396  -8.4396
    -8.4396  -8.4396  -8.4396  -8.4396  -8.4396  -8.4396  -8.4396  -8.4396
    -8.4360  -8.4360  -8.4360  -8.4360  -8.4360  -8.4360  -8.4338  -8.4338
    -8.4338  -8.4338  -8.4338  -8.4338  -8.4266  -8.4266  -8.4266  -8.4266
    -8.4242  -8.4242  -8.4204  -8.4204  -8.4196  -8.4196  -8.4182  -8.4182
    -8.4182  -8.4182  -8.4182  -8.4182  -8.4159  -8.4159  -8.4141  -8.4141
    -8.4141  -8.4141  -8.4141  -8.4141  -8.4137  -8.4137  -8.4137  -8.4137
    -8.4137  -8.4137  -8.4134  -8.4134  -8.4134  -8.4134  -8.4134  -8.4134
    -8.4132  -8.4132  -8.4132  -8.4132  -8.4132  -8.4132  -8.4096  -8.4096
    -8.4096  -8.4096  -8.4096  -8.4096  -8.4096  -8.4096  -8.4096  -8.4096
    -8.4096  -8.4096  -8.4092  -8.4092  -8.4092  -8.4092  -8.4092  -8.4092
    -8.4090  -8.4090  -8.4090  -8.4090  -8.4090  -8.4090  -8.4078  -8.4078
    -8.4078  -8.4078  -8.4078  -8.4078  -8.4036  -8.4036  -8.4036  -8.4036
    -8.4036  -8.4036  -8.4036  -8.4036  -8.4036  -8.4036  -8.4036  -8.4036
    -8.4035  -8.4035  -8.4035  -8.4035  -8.4035  -8.4035  -8.4032  -8.4032
    -8.4032  -8.4032  -8.4032  -8.4032  -8.4017  -8.4017  -8.4017  -8.4017
    -8.4017  -8.4017  -8.4017  -8.4017  -8.4017  -8.4017  -8.4017  -8.4017
    -8.3971  -8.3971  -8.3971  -8.3971  -8.3971  -8.3971  -8.3961  -8.3961
    -8.3961  -8.3961  -8.3961  -8.3961  -8.3939  -8.3939  -8.3939  -8.3939
    -8.3939  -8.3939  -8.3939  -8.3939  -8.3939  -8.3939  -8.3939  -8.3939
    -8.0607  -8.0607  -8.0607  -8.0607  -8.0607  -8.0607  -8.0607  -8.0607
    -8.0607  -8.0607  -8.0607  -8.0607  -8.0558  -8.0558  -8.0558  -8.0558
    -8.0557  -8.0557  -8.0473  -8.0473  -8.0473  -8.0473  -8.0473  -8.0473
    -8.0473  -8.0473  -8.0473  -8.0473  -8.0473  -8.0473  -8.0411  -8.0411
    -8.0411  -8.0411  -8.0411  -8.0411  -8.0361  -8.0361  -8.0361  -8.0361
    -8.0361  -8.0361  -8.0328  -8.0328  -8.0328  -8.0328  -8.0328  -8.0328
    -8.0280  -8.0280  -8.0280  -8.0280  -8.0280  -8.0280  -8.0161  -8.0161
    -8.0161  -8.0161  -8.0161  -8.0161  -8.0086  -8.0086  -8.0086  -8.0086
    -8.0015  -8.0015  -8.0015  -8.0015  -7.9997  -7.9997  -7.9997  -7.9997
    -7.9997  -7.9997  -7.9995  -7.9995  -7.9995  -7.9995  -7.9995  -7.9995
    -7.9994  -7.9994  -7.9994  -7.9994  -7.9994  -7.9994  -7.9910  -7.9910
    -7.9910  -7.9910  -7.9910  -7.9910  -7.9860  -7.9860  -7.9860  -7.9860
    -7.9860  -7.9860  -7.9822  -7.9822  -7.9822  -7.9822  -7.9822  -7.9822
    -7.9822  -7.9822  -7.9822  -7.9822  -7.9822  -7.9822  -7.9786  -7.9786
    -7.9786  -7.9786  -7.9786  -7.9786  -7.9786  -7.9786  -7.9786  -7.9786
    -7.9786  -7.9786  -7.9772  -7.9772  -7.9772  -7.9772  -7.9772  -7.9772
    -7.9677  -7.9677  -7.9677  -7.9677  -7.9677  -7.9677  -7.9627  -7.9627
    -7.9627  -7.9627  -7.9621  -7.9621  -7.9621  -7.9621  -7.9621  -7.9621
    -7.9614  -7.9614  -7.9614  -7.9614  -7.9614  -7.9614  -7.9606  -7.9606
    -7.9606  -7.9606  -7.9606  -7.9606  -7.9606  -7.9606  -7.9606  -7.9606
    -7.9606  -7.9606  -7.9567  -7.9567  -7.9567  -7.9567  -7.9567  -7.9567
    -7.9520  -7.9520  -7.9520  -7.9520  -7.9520  -7.9520  -7.9517  -7.9517
    -7.9517  -7.9517  -7.9517  -7.9517  -7.9517  -7.9517  -7.9517  -7.9517
    -7.9517  -7.9517  -7.9506  -7.9506  -7.9506  -7.9506  -7.9505  -7.9505
    -7.9493  -7.9493  -7.9493  -7.9493  -7.9493  -7.9493  -7.9493  -7.9493
    -7.9493  -7.9493  -7.9493  -7.9493  -7.9491  -7.9491  -7.9491  -7.9491
    -7.9491  -7.9491  -7.9479  -7.9479  -7.9479  -7.9479  -7.9479  -7.9479
    -7.9461  -7.9461  -7.9461  -7.9461  -7.9457  -7.9457  -7.9457  -7.9457
    -7.9457  -7.9457  -7.9452  -7.9452  -7.9452  -7.9452  -7.9452  -7.9452
    -7.9452  -7.9452  -7.9452  -7.9452  -7.9452  -7.9452  -7.9440  -7.9440
    -7.9440  -7.9440  -7.9440  -7.9440  -7.9440  -7.9440  -7.9440  -7.9440
    -7.9440  -7.9440  -7.9409  -7.9409  -7.9371  -7.9371  -7.9371  -7.9371
    -7.9371  -7.9371  -7.9370  -7.9370  -7.9370  -7.9370  -7.9370  -7.9370
    -7.9358  -7.9358  -7.9330  -7.9330  -7.9330  -7.9330  -7.9330  -7.9330
    -7.9329  -7.9329  -7.9329  -7.9329  -7.9329  -7.9329  -7.9321  -7.9321
    -7.9321  -7.9321  -7.9321  -7.9321  -7.9312  -7.9312  -7.9312  -7.9312
    -7.9312  -7.9312  -7.9287  -7.9287  -7.9287  -7.9287  -7.9287  -7.9287
    -7.9287  -7.9287  -7.9287  -7.9287  -7.9287  -7.9287  -7.9286  -7.9286
    -7.9286  -7.9286  -7.9286  -7.9286  -7.9267  -7.9267  -7.9267  -7.9267
    -7.9267  -7.9267  -7.9263  -7.9263  -7.9263  -7.9263  -7.9263  -7.9263
    -7.9263  -7.9263  -7.9263  -7.9263  -7.9263  -7.9263  -7.9263  -7.9263
    -7.9258  -7.9258  -7.9258  -7.9258  -7.9258  -7.9258  -7.9255  -7.9255
    -7.9255  -7.9255  -7.9255  -7.9255  -7.9255  -7.9255  -7.9255  -7.9255
    -7.9255  -7.9255  -7.9225  -7.9225  -7.9225  -7.9225  -7.9225  -7.9225
    -7.9224  -7.9224  -7.9224  -7.9224  -7.9224  -7.9224  -7.9223  -7.9223
    -7.9223  -7.9223  -7.9223  -7.9223  -7.9223  -7.9223  -7.9223  -7.9223
    -7.9223  -7.9223  -7.9220  -7.9220  -7.9220  -7.9220  -7.9220  -7.9220
    -7.9212  -7.9212  -7.9207  -7.9207  -7.9207  -7.9207  -7.9207  -7.9207
    -6.0208  -6.0208  -6.0208  -6.0208  -5.5443  -5.5443  -5.5442  -5.5442
    -5.5442  -5.5442  -5.5419  -5.5419  -5.5419  -5.5419  -5.5419  -5.5419
    -5.1204  -5.1204  -5.1204  -5.1204  -5.1204  -5.1204  -5.1161  -5.1161
    -5.1161  -5.1161  -5.1161  -5.1161  -4.7854  -4.7854  -4.7854  -4.7854
    -4.6889  -4.6889  -4.6889  -4.6889  -4.6889  -4.6889  -4.6859  -4.6859
    -4.6859  -4.6859  -4.6859  -4.6859  -4.3959  -4.3959  -4.3959  -4.3959
    -4.3959  -4.3959  -4.3959  -4.3959  -4.3959  -4.3959  -4.3959  -4.3959
    -4.3914  -4.3914  -4.3914  -4.3914  -4.3914  -4.3914  -4.3914  -4.3914
    -4.3914  -4.3914  -4.3914  -4.3914  -4.3032  -4.3032  -4.3032  -4.3032
    -4.3032  -4.3032  -4.3000  -4.3000  -4.3000  -4.3000  -4.3000  -4.3000
    -3.9828  -3.9828  -3.9828  -3.9828  -3.9828  -3.9828  -3.9799  -3.9799
    -3.9799  -3.9799  -3.9799  -3.9799  -3.7771  -3.7771  -3.7771  -3.7771
    -3.7771  -3.7771  -3.7765  -3.7765  -3.7765  -3.7765  -3.7765  -3.7765
    -3.7171  -3.7171  -3.7171  -3.7171  -3.7171  -3.7171  -3.7171  -3.7171
    -3.7171  -3.7171  -3.7171  -3.7171  -3.7164  -3.7164  -3.7164  -3.7164
    -3.7164  -3.7164  -3.7164  -3.7164  -3.7164  -3.7164  -3.7164  -3.7164
     0.0145   0.0145   0.0145   0.0145   0.0145   0.0145   0.0145   0.0145
     0.0145   0.0145   0.0145   0.0145   0.0154   0.0154   0.0154   0.0154
     0.0154   0.0154   0.0412   0.0412   0.0412   0.0412   0.0412   0.0412
     0.0654   0.0654   0.0654   0.0654   0.0654   0.0654   0.0660   0.0660
     0.0660   0.0660   0.0660   0.0660   0.0660   0.0660   0.0660   0.0660
     0.0660   0.0660   0.0842   0.0842   0.0842   0.0842   0.0842   0.0842
     0.1478   0.1478   0.1478   0.1478   0.1478   0.1478   0.1955   0.1955
     0.1955   0.1955   0.1955   0.1955   0.6810   0.6810   0.6810   0.6810
     0.6810   0.6810   0.6810   0.6810   0.6810   0.6810   0.6810   0.6810
     0.6905   0.6905   0.6905   0.6905   0.7175   0.7175   0.7175   0.7175
     0.7176   0.7176   0.7176   0.7176   0.7176   0.7176   0.7176   0.7176
     1.3403   1.3403   1.3403   1.3403   1.3403   1.3403   1.3623   1.3623
     1.3623   1.3623   1.3623   1.3623   1.7644   1.7644   1.7644   1.7644
     1.7644   1.7644   1.7881   1.7881   1.7881   1.7881   1.7881   1.7881
     2.8950   2.8950   2.8950   2.8950   2.8950   2.8950   2.8950   2.8950
     2.8950   2.8950   2.8950   2.8950   2.9137   2.9137   2.9137   2.9137
     2.9137   2.9137   2.9603   2.9603   2.9603   2.9603   2.9603   2.9603
     2.9603   2.9603   2.9603   2.9603   2.9603   2.9603   2.9725   2.9725
     2.9725   2.9725   2.9725   2.9725   3.0087   3.0087   3.0087   3.0087
     3.0087   3.0087   3.0249   3.0249   3.0249   3.0249   3.0249   3.0249
     3.4814   3.4814   3.4814   3.4814   3.4814   3.4814   3.5200   3.5200
     3.5200   3.5200   3.5200   3.5200   3.5329   3.5329   3.5329   3.5329
     3.5329   3.5329   3.5329   3.5329   3.5329   3.5329   3.5329   3.5329
     3.5915   3.5915   3.5915   3.5915   3.5915   3.5915   3.5915   3.5915
     3.5915   3.5915   3.5915   3.5915   3.9670   3.9670   3.9670   3.9670
     3.9670   3.9670   3.9670   3.9670   3.9670   3.9670   3.9670   3.9670
     3.9956   3.9956   3.9956   3.9956   3.9956   3.9956   3.9956   3.9956
     3.9956   3.9956   3.9956   3.9956   4.1452   4.1452   4.1452   4.1452
     4.1452   4.1452   4.1509   4.1509   4.1509   4.1509   4.1509   4.1509
     4.1968   4.1968   4.1968   4.1968   4.1968   4.1968   4.2405   4.2405
     4.2405   4.2405   4.2405   4.2405   4.4269   4.4269   4.4269   4.4269
     4.4269   4.4269   4.4651   4.4651   4.4651   4.4651   4.4651   4.4651
     4.5167   4.5167   4.5167   4.5167   4.5167   4.5167   4.5635   4.5635
     4.5635   4.5635   4.5635   4.5635   4.6474   4.6474   4.6474   4.6474
     4.6474   4.6474   4.6569   4.6569   4.6569   4.6569   4.6569   4.6569
     4.7137   4.7137   4.7137   4.7137   4.9217   4.9217   4.9217   4.9217
     4.9217   4.9217   4.9217   4.9217   4.9217   4.9217   4.9217   4.9217
     4.9361   4.9361   4.9361   4.9361   4.9361   4.9361   4.9366   4.9366
     4.9366   4.9366   4.9366   4.9366   4.9542   4.9542   4.9542   4.9542
     4.9542   4.9542   4.9542   4.9542   4.9542   4.9542   4.9542   4.9542
     5.2464   5.2464   5.2464   5.2464   5.2464   5.2464   5.2505   5.2505
     5.2505   5.2505   5.2505   5.2505   5.4295   5.4295   5.4295   5.4295
     5.4295   5.4295   5.4780   5.4780   5.4780   5.4780   5.4780   5.4780
     5.5786   5.5786   5.5786   5.5786   5.6060   5.6060   5.6060   5.6060
     5.6060   5.6060   5.6212   5.6212   5.6212   5.6212   5.6212   5.6212
     5.7949   5.7949   5.7973   5.7973   6.0000   6.0000   6.0000   6.0000
     6.0000   6.0000   6.0000   6.0000   6.0000   6.0000   6.0000   6.0000
     6.3863   6.3863   6.3863   6.3863   6.6109   6.6109   6.6140   6.6140
     7.7791   7.7791   7.7791   7.7791   8.3017   8.3017   8.3017   8.3017
     8.3017   8.3017   8.3027   8.3027   8.3027   8.3027   8.3067   8.3067
     8.3067   8.3067   8.3067   8.3067   8.7391   8.7391   8.7391   8.7391
     8.7391   8.7391   8.7406   8.7406   8.7406   8.7406   8.7406   8.7406
     8.7452   8.7452   8.7452   8.7452   8.7452   8.7452   8.7691   8.7691
     8.7691   8.7691   8.7691   8.7691   8.9947   8.9947   8.9947   8.9947
     8.9947   8.9947   9.0386   9.0386   9.0386   9.0386   9.0386   9.0386
     9.0490   9.0490   9.0490   9.0490   9.0490   9.0490   9.0636   9.0636
     9.0636   9.0636   9.0636   9.0636   9.2145   9.2145   9.2145   9.2145
     9.2145   9.2145   9.2646   9.2646   9.2646   9.2646   9.2646   9.2646
     9.2950   9.2950   9.2950   9.2950   9.2950   9.2950   9.3268   9.3268
     9.3268   9.3268   9.3268   9.3268   9.6409   9.6409   9.6409   9.6409
     9.6409   9.6409   9.6409   9.6409   9.6409   9.6409   9.6409   9.6409
     9.6716   9.6716   9.6716   9.6716   9.6716   9.6716   9.6716   9.6716
     9.6716   9.6716   9.6716   9.6716   9.7624   9.7624   9.7624   9.7624
     9.7624   9.7624   9.7624   9.7624   9.7624   9.7624   9.7624   9.7624
     9.8251   9.8251   9.8251   9.8251   9.8251   9.8251   9.8251   9.8251
     9.8251   9.8251   9.8251   9.8251   9.9848   9.9848   9.9848   9.9848
     9.9848   9.9848  10.0164  10.0164  10.0164  10.0164  10.0164  10.0164
    10.1112  10.1112  10.1112  10.1112  10.1112  10.1112  10.1260  10.1260
    10.1260  10.1260  10.1260  10.1260  10.7092  10.7092  10.7092  10.7092
    10.8567  10.8567  10.8582  10.8582  10.8597  10.8597  10.8597  10.8597
    10.8597  10.8597  10.8597  10.8597  10.8597  10.8597  10.8597  10.8597
    10.8908  10.8908  10.8908  10.8908  10.8908  10.8908  10.8908  10.8908
    10.8908  10.8908  10.8908  10.8908  10.9070  10.9070  10.9070  10.9070
    11.0096  11.0096  11.0096  11.0096  11.0097  11.0097  11.0185  11.0185
    11.0185  11.0185  11.0185  11.0185  11.3824  11.3825  11.3825  11.3825
    11.3825  11.3825  11.3826  11.3826  11.3828  11.3828  11.3830  11.3831
    11.4020  11.4022  11.4024  11.4025  11.4027  11.4030

          k = 0.0000-1.0000 0.0000 (209078 PWs)   bands (ev):

    -8.4863  -8.4863  -8.4863  -8.4863  -8.4855  -8.4855  -8.4855  -8.4855
    -8.4855  -8.4855  -8.4855  -8.4855  -8.4853  -8.4853  -8.4853  -8.4853
    -8.4797  -8.4797  -8.4797  -8.4797  -8.4797  -8.4797  -8.4797  -8.4797
    -8.4781  -8.4781  -8.4781  -8.4781  -8.4781  -8.4781  -8.4781  -8.4781
    -8.4660  -8.4660  -8.4660  -8.4660  -8.4660  -8.4660  -8.4660  -8.4660
    -8.4629  -8.4629  -8.4629  -8.4629  -8.4592  -8.4592  -8.4592  -8.4592
    -8.4592  -8.4592  -8.4592  -8.4592  -8.4589  -8.4589  -8.4589  -8.4589
    -8.4589  -8.4589  -8.4589  -8.4589  -8.4500  -8.4500  -8.4500  -8.4500
    -8.4462  -8.4462  -8.4462  -8.4462  -8.4462  -8.4462  -8.4462  -8.4462
    -8.4459  -8.4459  -8.4459  -8.4459  -8.4409  -8.4409  -8.4409  -8.4409
    -8.4409  -8.4409  -8.4409  -8.4409  -8.4401  -8.4401  -8.4401  -8.4401
    -8.4401  -8.4401  -8.4401  -8.4401  -8.4393  -8.4393  -8.4393  -8.4393
    -8.4393  -8.4393  -8.4393  -8.4393  -8.4381  -8.4381  -8.4381  -8.4381
    -8.4379  -8.4379  -8.4379  -8.4379  -8.4379  -8.4379  -8.4379  -8.4379
    -8.4373  -8.4373  -8.4373  -8.4373  -8.4373  -8.4373  -8.4373  -8.4373
    -8.4313  -8.4313  -8.4313  -8.4313  -8.4304  -8.4304  -8.4304  -8.4304
    -8.4190  -8.4190  -8.4190  -8.4190  -8.4189  -8.4189  -8.4189  -8.4189
    -8.4164  -8.4164  -8.4164  -8.4164  -8.4164  -8.4164  -8.4164  -8.4164
    -8.4164  -8.4164  -8.4164  -8.4164  -8.4130  -8.4130  -8.4130  -8.4130
    -8.4130  -8.4130  -8.4130  -8.4130  -8.4127  -8.4127  -8.4127  -8.4127
    -8.4127  -8.4127  -8.4127  -8.4127  -8.4105  -8.4105  -8.4105  -8.4105
    -8.4104  -8.4104  -8.4104  -8.4104  -8.4098  -8.4098  -8.4098  -8.4098
    -8.4098  -8.4098  -8.4098  -8.4098  -8.4086  -8.4086  -8.4086  -8.4086
    -8.4086  -8.4086  -8.4086  -8.4086  -8.4075  -8.4075  -8.4075  -8.4075
    -8.4075  -8.4075  -8.4075  -8.4075  -8.4054  -8.4054  -8.4054  -8.4054
    -8.4054  -8.4054  -8.4054  -8.4054  -8.4050  -8.4050  -8.4050  -8.4050
    -8.4050  -8.4050  -8.4050  -8.4050  -8.4045  -8.4045  -8.4045  -8.4045
    -8.4028  -8.4028  -8.4028  -8.4028  -8.4018  -8.4018  -8.4018  -8.4018
    -8.3993  -8.3993  -8.3993  -8.3993  -8.3993  -8.3993  -8.3993  -8.3993
    -8.3986  -8.3986  -8.3986  -8.3986  -8.3986  -8.3986  -8.3986  -8.3986
    -8.3953  -8.3953  -8.3953  -8.3953  -8.3941  -8.3941  -8.3941  -8.3941
    -8.3941  -8.3941  -8.3941  -8.3941  -8.3926  -8.3926  -8.3926  -8.3926
    -8.0615  -8.0615  -8.0615  -8.0615  -8.0614  -8.0614  -8.0614  -8.0614
    -8.0571  -8.0571  -8.0571  -8.0571  -8.0530  -8.0530  -8.0530  -8.0530
    -8.0530  -8.0530  -8.0530  -8.0530  -8.0516  -8.0516  -8.0516  -8.0516
    -8.0466  -8.0466  -8.0466  -8.0466  -8.0466  -8.0466  -8.0466  -8.0466
    -8.0358  -8.0358  -8.0358  -8.0358  -8.0358  -8.0358  -8.0358  -8.0358
    -8.0319  -8.0319  -8.0319  -8.0319  -8.0319  -8.0319  -8.0319  -8.0319
    -8.0294  -8.0294  -8.0294  -8.0294  -8.0294  -8.0294  -8.0294  -8.0294
    -8.0184  -8.0184  -8.0184  -8.0184  -8.0137  -8.0137  -8.0137  -8.0137
    -8.0029  -8.0029  -8.0029  -8.0029  -7.9970  -7.9970  -7.9970  -7.9970
    -7.9929  -7.9929  -7.9929  -7.9929  -7.9929  -7.9929  -7.9929  -7.9929
    -7.9927  -7.9927  -7.9927  -7.9927  -7.9926  -7.9926  -7.9926  -7.9926
    -7.9913  -7.9913  -7.9913  -7.9913  -7.9913  -7.9913  -7.9913  -7.9913
    -7.9907  -7.9907  -7.9907  -7.9907  -7.9854  -7.9854  -7.9854  -7.9854
    -7.9852  -7.9852  -7.9852  -7.9852  -7.9852  -7.9852  -7.9852  -7.9852
    -7.9751  -7.9751  -7.9751  -7.9751  -7.9751  -7.9751  -7.9751  -7.9751
    -7.9722  -7.9722  -7.9722  -7.9722  -7.9722  -7.9722  -7.9722  -7.9722
    -7.9687  -7.9687  -7.9687  -7.9687  -7.9687  -7.9687  -7.9687  -7.9687
    -7.9661  -7.9661  -7.9661  -7.9661  -7.9661  -7.9661  -7.9661  -7.9661
    -7.9612  -7.9612  -7.9612  -7.9612  -7.9612  -7.9612  -7.9612  -7.9612
    -7.9598  -7.9598  -7.9598  -7.9598  -7.9598  -7.9598  -7.9598  -7.9598
    -7.9560  -7.9560  -7.9560  -7.9560  -7.9560  -7.9560  -7.9560  -7.9560
    -7.9539  -7.9539  -7.9539  -7.9539  -7.9539  -7.9539  -7.9539  -7.9539
    -7.9538  -7.9538  -7.9538  -7.9538  -7.9538  -7.9538  -7.9538  -7.9538
    -7.9525  -7.9525  -7.9525  -7.9525  -7.9504  -7.9504  -7.9504  -7.9504
    -7.9504  -7.9504  -7.9504  -7.9504  -7.9475  -7.9475  -7.9475  -7.9475
    -7.9473  -7.9473  -7.9473  -7.9473  -7.9473  -7.9473  -7.9473  -7.9473
    -7.9465  -7.9465  -7.9465  -7.9465  -7.9465  -7.9465  -7.9465  -7.9465
    -7.9463  -7.9463  -7.9463  -7.9463  -7.9463  -7.9463  -7.9463  -7.9463
    -7.9458  -7.9458  -7.9458  -7.9458  -7.9453  -7.9453  -7.9453  -7.9453
    -7.9446  -7.9446  -7.9446  -7.9446  -7.9436  -7.9436  -7.9436  -7.9436
    -7.9428  -7.9428  -7.9428  -7.9428  -7.9428  -7.9428  -7.9428  -7.9428
    -7.9412  -7.9412  -7.9412  -7.9412  -7.9404  -7.9404  -7.9404  -7.9404
    -7.9381  -7.9381  -7.9381  -7.9381  -7.9366  -7.9366  -7.9366  -7.9366
    -7.9342  -7.9342  -7.9342  -7.9342  -7.9329  -7.9329  -7.9329  -7.9329
    -7.9320  -7.9320  -7.9320  -7.9320  -7.9320  -7.9320  -7.9320  -7.9320
    -7.9315  -7.9315  -7.9315  -7.9315  -7.9315  -7.9315  -7.9315  -7.9315
    -7.9308  -7.9308  -7.9308  -7.9308  -7.9308  -7.9308  -7.9308  -7.9308
    -7.9307  -7.9307  -7.9307  -7.9307  -7.9286  -7.9286  -7.9286  -7.9286
    -7.9286  -7.9286  -7.9286  -7.9286  -7.9276  -7.9276  -7.9276  -7.9276
    -7.9257  -7.9257  -7.9257  -7.9257  -7.9257  -7.9257  -7.9257  -7.9257
    -7.9255  -7.9255  -7.9255  -7.9255  -7.9255  -7.9255  -7.9255  -7.9255
    -7.9244  -7.9244  -7.9244  -7.9244  -7.9244  -7.9244  -7.9244  -7.9244
    -7.9244  -7.9244  -7.9244  -7.9244  -7.9244  -7.9244  -7.9244  -7.9244
    -7.9240  -7.9240  -7.9240  -7.9240  -7.9240  -7.9240  -7.9240  -7.9240
    -7.9236  -7.9236  -7.9235  -7.9235  -7.9235  -7.9235  -7.9235  -7.9235
    -7.9233  -7.9233  -7.9233  -7.9233  -7.9233  -7.9233  -7.9233  -7.9233
    -7.9218  -7.9218  -7.9218  -7.9218  -7.9218  -7.9218  -7.9218  -7.9218
    -7.9204  -7.9204  -7.9204  -7.9204  -7.9198  -7.9198  -7.9198  -7.9198
    -5.9582  -5.9582  -5.9582  -5.9582  -5.7202  -5.7202  -5.7202  -5.7202
    -5.7176  -5.7176  -5.7176  -5.7176  -5.0532  -5.0532  -5.0532  -5.0532
    -5.0532  -5.0532  -5.0532  -5.0532  -5.0488  -5.0488  -5.0488  -5.0488
    -5.0488  -5.0488  -5.0488  -5.0488  -4.8796  -4.8796  -4.8796  -4.8796
    -4.8796  -4.8796  -4.8796  -4.8796  -4.8760  -4.8760  -4.8760  -4.8760
    -4.8760  -4.8760  -4.8760  -4.8760  -4.4488  -4.4488  -4.4488  -4.4488
    -4.4488  -4.4488  -4.4488  -4.4488  -4.4451  -4.4451  -4.4451  -4.4451
    -4.4451  -4.4451  -4.4451  -4.4451  -4.2568  -4.2568  -4.2568  -4.2568
    -4.1372  -4.1372  -4.1372  -4.1372  -4.1372  -4.1372  -4.1372  -4.1372
    -4.1345  -4.1345  -4.1345  -4.1345  -4.1345  -4.1345  -4.1345  -4.1345
    -4.0237  -4.0237  -4.0237  -4.0237  -4.0237  -4.0237  -4.0237  -4.0237
    -4.0206  -4.0206  -4.0206  -4.0206  -4.0206  -4.0206  -4.0206  -4.0206
    -3.8653  -3.8653  -3.8653  -3.8653  -3.8653  -3.8653  -3.8653  -3.8653
    -3.8631  -3.8631  -3.8631  -3.8631  -3.8631  -3.8631  -3.8631  -3.8631
    -3.6451  -3.6451  -3.6451  -3.6451  -3.6450  -3.6450  -3.6450  -3.6450
    -3.5783  -3.5783  -3.5783  -3.5783  -3.5776  -3.5776  -3.5776  -3.5776
    -0.1831  -0.1831  -0.1831  -0.1831  -0.1460  -0.1460  -0.1460  -0.1460
    -0.0881  -0.0881  -0.0881  -0.0881  -0.0367  -0.0367  -0.0367  -0.0367
     0.0588   0.0588   0.0588   0.0588   0.0588   0.0588   0.0588   0.0588
     0.0966   0.0966   0.0966   0.0966   0.0966   0.0966   0.0966   0.0966
     0.1872   0.1872   0.1872   0.1872   0.1872   0.1872   0.1872   0.1872
     0.2437   0.2437   0.2437   0.2437   0.2437   0.2437   0.2437   0.2437
     0.3292   0.3292   0.3292   0.3292   0.3292   0.3292   0.3292   0.3292
     0.3495   0.3495   0.3495   0.3495   0.3495   0.3495   0.3495   0.3495
     0.5306   0.5306   0.5306   0.5306   0.5306   0.5306   0.5306   0.5306
     0.5645   0.5645   0.5645   0.5645   0.5645   0.5645   0.5645   0.5645
     0.6900   0.6900   0.6900   0.6900   1.2034   1.2034   1.2034   1.2034
     1.2034   1.2034   1.2034   1.2034   1.2204   1.2204   1.2204   1.2204
     1.2204   1.2204   1.2204   1.2204   1.9317   1.9317   1.9317   1.9317
     1.9317   1.9317   1.9317   1.9317   1.9630   1.9630   1.9630   1.9630
     1.9630   1.9630   1.9630   1.9630   2.6933   2.6933   2.6933   2.6933
     2.7438   2.7438   2.7438   2.7438   2.7438   2.7438   2.7438   2.7438
     2.7519   2.7519   2.7519   2.7519   2.8134   2.8134   2.8134   2.8134
     2.8134   2.8134   2.8134   2.8134   3.3571   3.3571   3.3571   3.3571
     3.3571   3.3571   3.3571   3.3571   3.4123   3.4123   3.4123   3.4123
     3.4123   3.4123   3.4123   3.4123   3.4188   3.4188   3.4188   3.4188
     3.5072   3.5072   3.5072   3.5072   3.5156   3.5156   3.5156   3.5156
     3.5337   3.5337   3.5337   3.5337   3.5372   3.5372   3.5372   3.5372
     3.5372   3.5372   3.5372   3.5372   3.5639   3.5639   3.5639   3.5639
     3.5966   3.5966   3.5966   3.5966   3.6089   3.6089   3.6089   3.6089
     3.6089   3.6089   3.6089   3.6089   4.1410   4.1410   4.1410   4.1410
     4.1410   4.1410   4.1410   4.1410   4.1867   4.1867   4.1867   4.1867
     4.1952   4.1952   4.1952   4.1952   4.1952   4.1952   4.1952   4.1952
     4.2055   4.2055   4.2055   4.2055   4.2055   4.2055   4.2055   4.2055
     4.2675   4.2675   4.2675   4.2675   4.2675   4.2675   4.2675   4.2675
     4.2784   4.2784   4.2784   4.2784   4.2859   4.2859   4.2859   4.2859
     4.2859   4.2859   4.2859   4.2859   4.3215   4.3215   4.3215   4.3215
     4.3215   4.3215   4.3215   4.3215   4.3254   4.3254   4.3254   4.3254
     4.3254   4.3254   4.3254   4.3254   4.3496   4.3496   4.3496   4.3496
     4.3496   4.3496   4.3496   4.3496   4.4025   4.4025   4.4025   4.4025
     4.4043   4.4043   4.4043   4.4043   4.6918   4.6918   4.6918   4.6918
     4.7145   4.7145   4.7145   4.7145   4.7145   4.7145   4.7145   4.7145
     4.7423   4.7423   4.7423   4.7423   4.7423   4.7423   4.7423   4.7423
     4.8584   4.8584   4.8584   4.8584   4.8584   4.8584   4.8584   4.8584
     4.9026   4.9026   4.9026   4.9026   4.9026   4.9026   4.9026   4.9026
     5.2600   5.2600   5.2600   5.2600   5.2600   5.2600   5.2600   5.2600
     5.2705   5.2705   5.2705   5.2705   5.2705   5.2705   5.2705   5.2705
     5.2779   5.2779   5.2779   5.2779   5.3325   5.3325   5.3325   5.3325
     5.3725   5.3725   5.3725   5.3725   5.3725   5.3725   5.3725   5.3725
     5.4133   5.4133   5.4133   5.4133   5.4133   5.4133   5.4133   5.4133
     5.5223   5.5223   5.5223   5.5223   5.5223   5.5223   5.5223   5.5223
     5.5235   5.5235   5.5235   5.5235   5.5235   5.5235   5.5235   5.5235
     5.9749   5.9749   5.9749   5.9749   6.1380   6.1380   6.1380   6.1380
     6.4615   6.4615   6.4615   6.4615   6.4629   6.4629   6.4629   6.4629
     8.0542   8.0542   8.0542   8.0542   8.5722   8.5722   8.5722   8.5722
     8.5749   8.5749   8.5749   8.5749   8.7759   8.7759   8.7759   8.7759
     8.7759   8.7759   8.7759   8.7759   8.8085   8.8085   8.8085   8.8085
     8.8085   8.8085   8.8085   8.8085   8.9175   8.9175   8.9175   8.9175
     8.9298   8.9298   8.9298   8.9298   8.9298   8.9298   8.9298   8.9298
     8.9599   8.9599   8.9599   8.9599   8.9599   8.9599   8.9599   8.9599
     8.9900   8.9900   8.9900   8.9900   9.0487   9.0487   9.0487   9.0487
     9.1137   9.1137   9.1137   9.1137   9.1628   9.1628   9.1628   9.1628
     9.1991   9.1991   9.1991   9.1991   9.2736   9.2736   9.2736   9.2736
     9.2736   9.2736   9.2736   9.2736   9.3005   9.3005   9.3005   9.3005
     9.3005   9.3005   9.3005   9.3005   9.3839   9.3839   9.3839   9.3839
     9.4544   9.4544   9.4544   9.4544   9.7021   9.7021   9.7021   9.7021
     9.7021   9.7021   9.7021   9.7021   9.7101   9.7101   9.7101   9.7101
     9.7101   9.7101   9.7101   9.7101   9.7380   9.7380   9.7380   9.7380
     9.7670   9.7670   9.7670   9.7670   9.7670   9.7670   9.7670   9.7670
     9.8074   9.8074   9.8074   9.8074   9.8074   9.8074   9.8074   9.8074
     9.8481   9.8481   9.8481   9.8481   9.8481   9.8481   9.8481   9.8481
     9.8882   9.8882   9.8882   9.8882   9.8882   9.8882   9.8882   9.8882
    10.0002  10.0002  10.0002  10.0002  10.0002  10.0002  10.0002  10.0002
    10.0518  10.0518  10.0518  10.0518  10.0518  10.0518  10.0518  10.0518
    10.1814  10.1814  10.1814  10.1814  10.1814  10.1814  10.1814  10.1814
    10.2376  10.2376  10.2376  10.2376  10.2376  10.2376  10.2376  10.2376
    10.7289  10.7289  10.7289  10.7289  10.7798  10.7798  10.7798  10.7798
    10.8083  10.8083  10.8083  10.8083  10.8084  10.8084  10.8084  10.8084
    10.8295  10.8295  10.8295  10.8295  10.8295  10.8295  10.8295  10.8295
    10.8513  10.8513  10.8513  10.8513  10.8513  10.8513  10.8513  10.8513
    10.8686  10.8686  10.8686  10.8686  10.8686  10.8686  10.8686  10.8686
    10.9217  10.9217  10.9217  10.9217  10.9246  10.9246  10.9246  10.9246
    11.2265  11.2266  11.3095  11.3097  11.3098  11.3098

          k = 0.5000 0.5000-0.5000 (209018 PWs)   bands (ev):

    -8.4870  -8.4870  -8.4870  -8.4870  -8.4870  -8.4870  -8.4870  -8.4870
    -8.4870  -8.4870  -8.4870  -8.4870  -8.4815  -8.4815  -8.4815  -8.4815
    -8.4815  -8.4815  -8.4793  -8.4793  -8.4793  -8.4793  -8.4793  -8.4793
    -8.4740  -8.4740  -8.4740  -8.4740  -8.4740  -8.4740  -8.4740  -8.4740
    -8.4740  -8.4740  -8.4740  -8.4740  -8.4677  -8.4677  -8.4677  -8.4677
    -8.4677  -8.4677  -8.4655  -8.4655  -8.4655  -8.4655  -8.4655  -8.4655
    -8.4544  -8.4544  -8.4544  -8.4544  -8.4544  -8.4544  -8.4542  -8.4542
    -8.4542  -8.4542  -8.4542  -8.4542  -8.4456  -8.4456  -8.4456  -8.4456
    -8.4456  -8.4456  -8.4455  -8.4455  -8.4455  -8.4455  -8.4438  -8.4438
    -8.4438  -8.4438  -8.4438  -8.4438  -8.4430  -8.4430  -8.4430  -8.4430
    -8.4430  -8.4430  -8.4430  -8.4430  -8.4430  -8.4430  -8.4430  -8.4430
    -8.4411  -8.4411  -8.4411  -8.4411  -8.4411  -8.4411  -8.4398  -8.4398
    -8.4398  -8.4398  -8.4398  -8.4398  -8.4396  -8.4396  -8.4396  -8.4396
    -8.4396  -8.4396  -8.4396  -8.4396  -8.4396  -8.4396  -8.4396  -8.4396
    -8.4360  -8.4360  -8.4360  -8.4360  -8.4360  -8.4360  -8.4338  -8.4338
    -8.4338  -8.4338  -8.4338  -8.4338  -8.4266  -8.4266  -8.4266  -8.4266
    -8.4242  -8.4242  -8.4204  -8.4204  -8.4196  -8.4196  -8.4182  -8.4182
    -8.4182  -8.4182  -8.4182  -8.4182  -8.4159  -8.4159  -8.4141  -8.4141
    -8.4141  -8.4141  -8.4141  -8.4141  -8.4137  -8.4137  -8.4137  -8.4137
    -8.4137  -8.4137  -8.4134  -8.4134  -8.4134  -8.4134  -8.4134  -8.4134
    -8.4132  -8.4132  -8.4132  -8.4132  -8.4132  -8.4132  -8.4096  -8.4096
    -8.4096  -8.4096  -8.4096  -8.4096  -8.4096  -8.4096  -8.4096  -8.4096
    -8.4096  -8.4096  -8.4092  -8.4092  -8.4092  -8.4092  -8.4092  -8.4092
    -8.4090  -8.4090  -8.4090  -8.4090  -8.4090  -8.4090  -8.4078  -8.4078
    -8.4078  -8.4078  -8.4078  -8.4078  -8.4036  -8.4036  -8.4036  -8.4036
    -8.4036  -8.4036  -8.4036  -8.4036  -8.4036  -8.4036  -8.4036  -8.4036
    -8.4035  -8.4035  -8.4035  -8.4035  -8.4035  -8.4035  -8.4032  -8.4032
    -8.4032  -8.4032  -8.4032  -8.4032  -8.4017  -8.4017  -8.4017  -8.4017
    -8.4017  -8.4017  -8.4017  -8.4017  -8.4017  -8.4017  -8.4017  -8.4017
    -8.3971  -8.3971  -8.3971  -8.3971  -8.3971  -8.3971  -8.3961  -8.3961
    -8.3961  -8.3961  -8.3961  -8.3961  -8.3939  -8.3939  -8.3939  -8.3939
    -8.3939  -8.3939  -8.3939  -8.3939  -8.3939  -8.3939  -8.3939  -8.3939
    -8.0607  -8.0607  -8.0607  -8.0607  -8.0607  -8.0607  -8.0607  -8.0607
    -8.0607  -8.0607  -8.0607  -8.0607  -8.0558  -8.0558  -8.0558  -8.0558
    -8.0557  -8.0557  -8.0473  -8.0473  -8.0473  -8.0473  -8.0473  -8.0473
    -8.0473  -8.0473  -8.0473  -8.0473  -8.0473  -8.0473  -8.0411  -8.0411
    -8.0411  -8.0411  -8.0411  -8.0411  -8.0361  -8.0361  -8.0361  -8.0361
    -8.0361  -8.0361  -8.0328  -8.0328  -8.0328  -8.0328  -8.0328  -8.0328
    -8.0280  -8.0280  -8.0280  -8.0280  -8.0280  -8.0280  -8.0161  -8.0161
    -8.0161  -8.0161  -8.0161  -8.0161  -8.0086  -8.0086  -8.0086  -8.0086
    -8.0015  -8.0015  -8.0015  -8.0015  -7.9997  -7.9997  -7.9997  -7.9997
    -7.9997  -7.9997  -7.9995  -7.9995  -7.9995  -7.9995  -7.9995  -7.9995
    -7.9994  -7.9994  -7.9994  -7.9994  -7.9994  -7.9994  -7.9910  -7.9910
    -7.9910  -7.9910  -7.9910  -7.9910  -7.9860  -7.9860  -7.9860  -7.9860
    -7.9860  -7.9860  -7.9822  -7.9822  -7.9822  -7.9822  -7.9822  -7.9822
    -7.9822  -7.9822  -7.9822  -7.9822  -7.9822  -7.9822  -7.9786  -7.9786
    -7.9786  -7.9786  -7.9786  -7.9786  -7.9786  -7.9786  -7.9786  -7.9786
    -7.9786  -7.9786  -7.9772  -7.9772  -7.9772  -7.9772  -7.9772  -7.9772
    -7.9677  -7.9677  -7.9677  -7.9677  -7.9677  -7.9677  -7.9627  -7.9627
    -7.9627  -7.9627  -7.9621  -7.9621  -7.9621  -7.9621  -7.9621  -7.9621
    -7.9614  -7.9614  -7.9614  -7.9614  -7.9614  -7.9614  -7.9606  -7.9606
    -7.9606  -7.9606  -7.9606  -7.9606  -7.9606  -7.9606  -7.9606  -7.9606
    -7.9606  -7.9606  -7.9567  -7.9567  -7.9567  -7.9567  -7.9567  -7.9567
    -7.9520  -7.9520  -7.9520  -7.9520  -7.9520  -7.9520  -7.9517  -7.9517
    -7.9517  -7.9517  -7.9517  -7.9517  -7.9517  -7.9517  -7.9517  -7.9517
    -7.9517  -7.9517  -7.9506  -7.9506  -7.9506  -7.9506  -7.9505  -7.9505
    -7.9493  -7.9493  -7.9493  -7.9493  -7.9493  -7.9493  -7.9493  -7.9493
    -7.9493  -7.9493  -7.9493  -7.9493  -7.9491  -7.9491  -7.9491  -7.9491
    -7.9491  -7.9491  -7.9479  -7.9479  -7.9479  -7.9479  -7.9479  -7.9479
    -7.9461  -7.9461  -7.9461  -7.9461  -7.9457  -7.9457  -7.9457  -7.9457
    -7.9457  -7.9457  -7.9452  -7.9452  -7.9452  -7.9452  -7.9452  -7.9452
    -7.9452  -7.9452  -7.9452  -7.9452  -7.9452  -7.9452  -7.9440  -7.9440
    -7.9440  -7.9440  -7.9440  -7.9440  -7.9440  -7.9440  -7.9440  -7.9440
    -7.9440  -7.9440  -7.9409  -7.9409  -7.9371  -7.9371  -7.9371  -7.9371
    -7.9371  -7.9371  -7.9370  -7.9370  -7.9370  -7.9370  -7.9370  -7.9370
    -7.9358  -7.9358  -7.9330  -7.9330  -7.9330  -7.9330  -7.9330  -7.9330
    -7.9329  -7.9329  -7.9329  -7.9329  -7.9329  -7.9329  -7.9321  -7.9321
    -7.9321  -7.9321  -7.9321  -7.9321  -7.9312  -7.9312  -7.9312  -7.9312
    -7.9312  -7.9312  -7.9287  -7.9287  -7.9287  -7.9287  -7.9287  -7.9287
    -7.9287  -7.9287  -7.9287  -7.9287  -7.9287  -7.9287  -7.9286  -7.9286
    -7.9286  -7.9286  -7.9286  -7.9286  -7.9267  -7.9267  -7.9267  -7.9267
    -7.9267  -7.9267  -7.9263  -7.9263  -7.9263  -7.9263  -7.9263  -7.9263
    -7.9263  -7.9263  -7.9263  -7.9263  -7.9263  -7.9263  -7.9263  -7.9263
    -7.9258  -7.9258  -7.9258  -7.9258  -7.9258  -7.9258  -7.9255  -7.9255
    -7.9255  -7.9255  -7.9255  -7.9255  -7.9255  -7.9255  -7.9255  -7.9255
    -7.9255  -7.9255  -7.9225  -7.9225  -7.9225  -7.9225  -7.9225  -7.9225
    -7.9224  -7.9224  -7.9224  -7.9224  -7.9224  -7.9224  -7.9223  -7.9223
    -7.9223  -7.9223  -7.9223  -7.9223  -7.9223  -7.9223  -7.9223  -7.9223
    -7.9223  -7.9223  -7.9220  -7.9220  -7.9220  -7.9220  -7.9220  -7.9220
    -7.9212  -7.9212  -7.9207  -7.9207  -7.9207  -7.9207  -7.9207  -7.9207
    -6.0208  -6.0208  -6.0208  -6.0208  -5.5443  -5.5443  -5.5442  -5.5442
    -5.5442  -5.5442  -5.5419  -5.5419  -5.5419  -5.5419  -5.5419  -5.5419
    -5.1204  -5.1204  -5.1204  -5.1204  -5.1204  -5.1204  -5.1161  -5.1161
    -5.1161  -5.1161  -5.1161  -5.1161  -4.7854  -4.7854  -4.7854  -4.7854
    -4.6889  -4.6889  -4.6889  -4.6889  -4.6889  -4.6889  -4.6859  -4.6859
    -4.6859  -4.6859  -4.6859  -4.6859  -4.3959  -4.3959  -4.3959  -4.3959
    -4.3959  -4.3959  -4.3959  -4.3959  -4.3959  -4.3959  -4.3959  -4.3959
    -4.3914  -4.3914  -4.3914  -4.3914  -4.3914  -4.3914  -4.3914  -4.3914
    -4.3914  -4.3914  -4.3914  -4.3914  -4.3032  -4.3032  -4.3032  -4.3032
    -4.3032  -4.3032  -4.3000  -4.3000  -4.3000  -4.3000  -4.3000  -4.3000
    -3.9828  -3.9828  -3.9828  -3.9828  -3.9828  -3.9828  -3.9799  -3.9799
    -3.9799  -3.9799  -3.9799  -3.9799  -3.7771  -3.7771  -3.7771  -3.7771
    -3.7771  -3.7771  -3.7765  -3.7765  -3.7765  -3.7765  -3.7765  -3.7765
    -3.7171  -3.7171  -3.7171  -3.7171  -3.7171  -3.7171  -3.7171  -3.7171
    -3.7171  -3.7171  -3.7171  -3.7171  -3.7164  -3.7164  -3.7164  -3.7164
    -3.7164  -3.7164  -3.7164  -3.7164  -3.7164  -3.7164  -3.7164  -3.7164
     0.0145   0.0145   0.0145   0.0145   0.0145   0.0145   0.0145   0.0145
     0.0145   0.0145   0.0145   0.0145   0.0154   0.0154   0.0154   0.0154
     0.0154   0.0154   0.0412   0.0412   0.0412   0.0412   0.0412   0.0412
     0.0654   0.0654   0.0654   0.0654   0.0654   0.0654   0.0660   0.0660
     0.0660   0.0660   0.0660   0.0660   0.0660   0.0660   0.0660   0.0660
     0.0660   0.0660   0.0842   0.0842   0.0842   0.0842   0.0842   0.0842
     0.1478   0.1478   0.1478   0.1478   0.1478   0.1478   0.1955   0.1955
     0.1955   0.1955   0.1955   0.1955   0.6810   0.6810   0.6810   0.6810
[...]
     3.5372   3.5372   3.5372   3.5372   3.5639   3.5639   3.5639   3.5639
     3.5966   3.5966   3.5966   3.5966   3.6089   3.6089   3.6089   3.6089
     3.6089   3.6089   3.6089   3.6089   4.1410   4.1410   4.1410   4.1410
     4.1410   4.1410   4.1410   4.1410   4.1867   4.1867   4.1867   4.1867
     4.1952   4.1952   4.1952   4.1952   4.1952   4.1952   4.1952   4.1952
     4.2055   4.2055   4.2055   4.2055   4.2055   4.2055   4.2055   4.2055
     4.2675   4.2675   4.2675   4.2675   4.2675   4.2675   4.2675   4.2675
     4.2784   4.2784   4.2784   4.2784   4.2859   4.2859   4.2859   4.2859
     4.2859   4.2859   4.2859   4.2859   4.3215   4.3215   4.3215   4.3215
     4.3215   4.3215   4.3215   4.3215   4.3254   4.3254   4.3254   4.3254
     4.3254   4.3254   4.3254   4.3254   4.3496   4.3496   4.3496   4.3496
     4.3496   4.3496   4.3496   4.3496   4.4025   4.4025   4.4025   4.4025
     4.4043   4.4043   4.4043   4.4043   4.6918   4.6918   4.6918   4.6918
     4.7145   4.7145   4.7145   4.7145   4.7145   4.7145   4.7145   4.7145
     4.7423   4.7423   4.7423   4.7423   4.7423   4.7423   4.7423   4.7423
     4.8584   4.8584   4.8584   4.8584   4.8584   4.8584   4.8584   4.8584
     4.9026   4.9026   4.9026   4.9026   4.9026   4.9026   4.9026   4.9026
     5.2600   5.2600   5.2600   5.2600   5.2600   5.2600   5.2600   5.2600
     5.2705   5.2705   5.2705   5.2705   5.2705   5.2705   5.2705   5.2705
     5.2779   5.2779   5.2779   5.2779   5.3325   5.3325   5.3325   5.3325
     5.3725   5.3725   5.3725   5.3725   5.3725   5.3725   5.3725   5.3725
     5.4133   5.4133   5.4133   5.4133   5.4133   5.4133   5.4133   5.4133
     5.5223   5.5223   5.5223   5.5223   5.5223   5.5223   5.5223   5.5223
     5.5235   5.5235   5.5235   5.5235   5.5235   5.5235   5.5235   5.5235
     5.9749   5.9749   5.9749   5.9749   6.1380   6.1380   6.1380   6.1380
     6.4615   6.4615   6.4615   6.4615   6.4629   6.4629   6.4629   6.4629
     8.0542   8.0542   8.0542   8.0542   8.5722   8.5722   8.5722   8.5722
     8.5749   8.5749   8.5749   8.5749   8.7759   8.7759   8.7759   8.7759
     8.7759   8.7759   8.7759   8.7759   8.8085   8.8085   8.8085   8.8085
     8.8085   8.8085   8.8085   8.8085   8.9175   8.9175   8.9175   8.9175
     8.9298   8.9298   8.9298   8.9298   8.9298   8.9298   8.9298   8.9298
     8.9599   8.9599   8.9599   8.9599   8.9599   8.9599   8.9599   8.9599
     8.9900   8.9900   8.9900   8.9900   9.0487   9.0487   9.0487   9.0487
     9.1137   9.1137   9.1137   9.1137   9.1628   9.1628   9.1628   9.1628
     9.1991   9.1991   9.1991   9.1991   9.2736   9.2736   9.2736   9.2736
     9.2736   9.2736   9.2736   9.2736   9.3005   9.3005   9.3005   9.3005
     9.3005   9.3005   9.3005   9.3005   9.3839   9.3839   9.3839   9.3839
     9.4544   9.4544   9.4544   9.4544   9.7021   9.7021   9.7021   9.7021
     9.7021   9.7021   9.7021   9.7021   9.7101   9.7101   9.7101   9.7101
     9.7101   9.7101   9.7101   9.7101   9.7380   9.7380   9.7380   9.7380
     9.7670   9.7670   9.7670   9.7670   9.7670   9.7670   9.7670   9.7670
     9.8074   9.8074   9.8074   9.8074   9.8074   9.8074   9.8074   9.8074
     9.8481   9.8481   9.8481   9.8481   9.8481   9.8481   9.8481   9.8481
     9.8882   9.8882   9.8882   9.8882   9.8882   9.8882   9.8882   9.8882
    10.0002  10.0002  10.0002  10.0002  10.0002  10.0002  10.0002  10.0002
    10.0518  10.0518  10.0518  10.0518  10.0518  10.0518  10.0518  10.0518
    10.1814  10.1814  10.1814  10.1814  10.1814  10.1814  10.1814  10.1814
    10.2376  10.2376  10.2376  10.2376  10.2376  10.2376  10.2376  10.2376
    10.7289  10.7289  10.7289  10.7289  10.7798  10.7798  10.7798  10.7798
    10.8083  10.8083  10.8083  10.8083  10.8084  10.8084  10.8084  10.8084
    10.8295  10.8295  10.8295  10.8295  10.8295  10.8295  10.8295  10.8295
    10.8513  10.8513  10.8513  10.8513  10.8513  10.8513  10.8513  10.8513
    10.8686  10.8686  10.8686  10.8686  10.8686  10.8686  10.8686  10.8686
    10.9217  10.9217  10.9217  10.9217  10.9246  10.9246  10.9246  10.9246
    11.2264  11.2265  11.2266  11.3096  11.3096  11.3097

          k = 0.5000-0.5000-0.5000 (209018 PWs)   bands (ev):

    -8.4870  -8.4870  -8.4870  -8.4870  -8.4870  -8.4870  -8.4870  -8.4870
    -8.4870  -8.4870  -8.4870  -8.4870  -8.4815  -8.4815  -8.4815  -8.4815
    -8.4815  -8.4815  -8.4793  -8.4793  -8.4793  -8.4793  -8.4793  -8.4793
    -8.4740  -8.4740  -8.4740  -8.4740  -8.4740  -8.4740  -8.4740  -8.4740
    -8.4740  -8.4740  -8.4740  -8.4740  -8.4677  -8.4677  -8.4677  -8.4677
    -8.4677  -8.4677  -8.4655  -8.4655  -8.4655  -8.4655  -8.4655  -8.4655
    -8.4544  -8.4544  -8.4544  -8.4544  -8.4544  -8.4544  -8.4542  -8.4542
    -8.4542  -8.4542  -8.4542  -8.4542  -8.4456  -8.4456  -8.4456  -8.4456
    -8.4456  -8.4456  -8.4455  -8.4455  -8.4455  -8.4455  -8.4438  -8.4438
    -8.4438  -8.4438  -8.4438  -8.4438  -8.4430  -8.4430  -8.4430  -8.4430
    -8.4430  -8.4430  -8.4430  -8.4430  -8.4430  -8.4430  -8.4430  -8.4430
    -8.4411  -8.4411  -8.4411  -8.4411  -8.4411  -8.4411  -8.4398  -8.4398
    -8.4398  -8.4398  -8.4398  -8.4398  -8.4396  -8.4396  -8.4396  -8.4396
    -8.4396  -8.4396  -8.4396  -8.4396  -8.4396  -8.4396  -8.4396  -8.4396
    -8.4360  -8.4360  -8.4360  -8.4360  -8.4360  -8.4360  -8.4338  -8.4338
    -8.4338  -8.4338  -8.4338  -8.4338  -8.4266  -8.4266  -8.4266  -8.4266
    -8.4242  -8.4242  -8.4204  -8.4204  -8.4196  -8.4196  -8.4182  -8.4182
    -8.4182  -8.4182  -8.4182  -8.4182  -8.4159  -8.4159  -8.4141  -8.4141
    -8.4141  -8.4141  -8.4141  -8.4141  -8.4137  -8.4137  -8.4137  -8.4137
    -8.4137  -8.4137  -8.4134  -8.4134  -8.4134  -8.4134  -8.4134  -8.4134
    -8.4132  -8.4132  -8.4132  -8.4132  -8.4132  -8.4132  -8.4096  -8.4096
    -8.4096  -8.4096  -8.4096  -8.4096  -8.4096  -8.4096  -8.4096  -8.4096
    -8.4096  -8.4096  -8.4092  -8.4092  -8.4092  -8.4092  -8.4092  -8.4092
    -8.4090  -8.4090  -8.4090  -8.4090  -8.4090  -8.4090  -8.4078  -8.4078
    -8.4078  -8.4078  -8.4078  -8.4078  -8.4036  -8.4036  -8.4036  -8.4036
    -8.4036  -8.4036  -8.4036  -8.4036  -8.4036  -8.4036  -8.4036  -8.4036
    -8.4035  -8.4035  -8.4035  -8.4035  -8.4035  -8.4035  -8.4032  -8.4032
    -8.4032  -8.4032  -8.4032  -8.4032  -8.4017  -8.4017  -8.4017  -8.4017
    -8.4017  -8.4017  -8.4017  -8.4017  -8.4017  -8.4017  -8.4017  -8.4017
    -8.3971  -8.3971  -8.3971  -8.3971  -8.3971  -8.3971  -8.3961  -8.3961
    -8.3961  -8.3961  -8.3961  -8.3961  -8.3939  -8.3939  -8.3939  -8.3939
    -8.3939  -8.3939  -8.3939  -8.3939  -8.3939  -8.3939  -8.3939  -8.3939
    -8.0607  -8.0607  -8.0607  -8.0607  -8.0607  -8.0607  -8.0607  -8.0607
    -8.0607  -8.0607  -8.0607  -8.0607  -8.0558  -8.0558  -8.0558  -8.0558
    -8.0557  -8.0557  -8.0473  -8.0473  -8.0473  -8.0473  -8.0473  -8.0473
    -8.0473  -8.0473  -8.0473  -8.0473  -8.0473  -8.0473  -8.0411  -8.0411
    -8.0411  -8.0411  -8.0411  -8.0411  -8.0361  -8.0361  -8.0361  -8.0361
    -8.0361  -8.0361  -8.0328  -8.0328  -8.0328  -8.0328  -8.0328  -8.0328
    -8.0280  -8.0280  -8.0280  -8.0280  -8.0280  -8.0280  -8.0161  -8.0161
    -8.0161  -8.0161  -8.0161  -8.0161  -8.0086  -8.0086  -8.0086  -8.0086
    -8.0015  -8.0015  -8.0015  -8.0015  -7.9997  -7.9997  -7.9997  -7.9997
    -7.9997  -7.9997  -7.9995  -7.9995  -7.9995  -7.9995  -7.9995  -7.9995
    -7.9994  -7.9994  -7.9994  -7.9994  -7.9994  -7.9994  -7.9910  -7.9910
    -7.9910  -7.9910  -7.9910  -7.9910  -7.9860  -7.9860  -7.9860  -7.9860
    -7.9860  -7.9860  -7.9822  -7.9822  -7.9822  -7.9822  -7.9822  -7.9822
    -7.9822  -7.9822  -7.9822  -7.9822  -7.9822  -7.9822  -7.9786  -7.9786
    -7.9786  -7.9786  -7.9786  -7.9786  -7.9786  -7.9786  -7.9786  -7.9786
    -7.9786  -7.9786  -7.9772  -7.9772  -7.9772  -7.9772  -7.9772  -7.9772
    -7.9677  -7.9677  -7.9677  -7.9677  -7.9677  -7.9677  -7.9627  -7.9627
    -7.9627  -7.9627  -7.9621  -7.9621  -7.9621  -7.9621  -7.9621  -7.9621
    -7.9614  -7.9614  -7.9614  -7.9614  -7.9614  -7.9614  -7.9606  -7.9606
    -7.9606  -7.9606  -7.9606  -7.9606  -7.9606  -7.9606  -7.9606  -7.9606
    -7.9606  -7.9606  -7.9567  -7.9567  -7.9567  -7.9567  -7.9567  -7.9567
    -7.9520  -7.9520  -7.9520  -7.9520  -7.9520  -7.9520  -7.9517  -7.9517
    -7.9517  -7.9517  -7.9517  -7.9517  -7.9517  -7.9517  -7.9517  -7.9517
    -7.9517  -7.9517  -7.9506  -7.9506  -7.9506  -7.9506  -7.9505  -7.9505
    -7.9493  -7.9493  -7.9493  -7.9493  -7.9493  -7.9493  -7.9493  -7.9493
    -7.9493  -7.9493  -7.9493  -7.9493  -7.9491  -7.9491  -7.9491  -7.9491
    -7.9491  -7.9491  -7.9479  -7.9479  -7.9479  -7.9479  -7.9479  -7.9479
    -7.9461  -7.9461  -7.9461  -7.9461  -7.9457  -7.9457  -7.9457  -7.9457
    -7.9457  -7.9457  -7.9452  -7.9452  -7.9452  -7.9452  -7.9452  -7.9452
    -7.9452  -7.9452  -7.9452  -7.9452  -7.9452  -7.9452  -7.9440  -7.9440
    -7.9440  -7.9440  -7.9440  -7.9440  -7.9440  -7.9440  -7.9440  -7.9440
    -7.9440  -7.9440  -7.9409  -7.9409  -7.9371  -7.9371  -7.9371  -7.9371
    -7.9371  -7.9371  -7.9370  -7.9370  -7.9370  -7.9370  -7.9370  -7.9370
    -7.9358  -7.9358  -7.9330  -7.9330  -7.9330  -7.9330  -7.9330  -7.9330
    -7.9329  -7.9329  -7.9329  -7.9329  -7.9329  -7.9329  -7.9321  -7.9321
    -7.9321  -7.9321  -7.9321  -7.9321  -7.9312  -7.9312  -7.9312  -7.9312
    -7.9312  -7.9312  -7.9287  -7.9287  -7.9287  -7.9287  -7.9287  -7.9287
    -7.9287  -7.9287  -7.9287  -7.9287  -7.9287  -7.9287  -7.9286  -7.9286
    -7.9286  -7.9286  -7.9286  -7.9286  -7.9267  -7.9267  -7.9267  -7.9267
    -7.9267  -7.9267  -7.9263  -7.9263  -7.9263  -7.9263  -7.9263  -7.9263
    -7.9263  -7.9263  -7.9263  -7.9263  -7.9263  -7.9263  -7.9263  -7.9263
    -7.9258  -7.9258  -7.9258  -7.9258  -7.9258  -7.9258  -7.9255  -7.9255
    -7.9255  -7.9255  -7.9255  -7.9255  -7.9255  -7.9255  -7.9255  -7.9255
    -7.9255  -7.9255  -7.9225  -7.9225  -7.9225  -7.9225  -7.9225  -7.9225
    -7.9224  -7.9224  -7.9224  -7.9224  -7.9224  -7.9224  -7.9223  -7.9223
    -7.9223  -7.9223  -7.9223  -7.9223  -7.9223  -7.9223  -7.9223  -7.9223
    -7.9223  -7.9223  -7.9220  -7.9220  -7.9220  -7.9220  -7.9220  -7.9220
    -7.9212  -7.9212  -7.9207  -7.9207  -7.9207  -7.9207  -7.9207  -7.9207
    -6.0208  -6.0208  -6.0208  -6.0208  -5.5443  -5.5443  -5.5442  -5.5442
    -5.5442  -5.5442  -5.5419  -5.5419  -5.5419  -5.5419  -5.5419  -5.5419
    -5.1204  -5.1204  -5.1204  -5.1204  -5.1204  -5.1204  -5.1161  -5.1161
    -5.1161  -5.1161  -5.1161  -5.1161  -4.7854  -4.7854  -4.7854  -4.7854
    -4.6889  -4.6889  -4.6889  -4.6889  -4.6889  -4.6889  -4.6859  -4.6859
    -4.6859  -4.6859  -4.6859  -4.6859  -4.3959  -4.3959  -4.3959  -4.3959
    -4.3959  -4.3959  -4.3959  -4.3959  -4.3959  -4.3959  -4.3959  -4.3959
    -4.3914  -4.3914  -4.3914  -4.3914  -4.3914  -4.3914  -4.3914  -4.3914
    -4.3914  -4.3914  -4.3914  -4.3914  -4.3032  -4.3032  -4.3032  -4.3032
    -4.3032  -4.3032  -4.3000  -4.3000  -4.3000  -4.3000  -4.3000  -4.3000
    -3.9828  -3.9828  -3.9828  -3.9828  -3.9828  -3.9828  -3.9799  -3.9799
    -3.9799  -3.9799  -3.9799  -3.9799  -3.7771  -3.7771  -3.7771  -3.7771
    -3.7771  -3.7771  -3.7765  -3.7765  -3.7765  -3.7765  -3.7765  -3.7765
    -3.7171  -3.7171  -3.7171  -3.7171  -3.7171  -3.7171  -3.7171  -3.7171
    -3.7171  -3.7171  -3.7171  -3.7171  -3.7164  -3.7164  -3.7164  -3.7164
    -3.7164  -3.7164  -3.7164  -3.7164  -3.7164  -3.7164  -3.7164  -3.7164
     0.0145   0.0145   0.0145   0.0145   0.0145   0.0145   0.0145   0.0145
     0.0145   0.0145   0.0145   0.0145   0.0154   0.0154   0.0154   0.0154
     0.0154   0.0154   0.0412   0.0412   0.0412   0.0412   0.0412   0.0412
     0.0654   0.0654   0.0654   0.0654   0.0654   0.0654   0.0660   0.0660
     0.0660   0.0660   0.0660   0.0660   0.0660   0.0660   0.0660   0.0660
     0.0660   0.0660   0.0842   0.0842   0.0842   0.0842   0.0842   0.0842
     0.1478   0.1478   0.1478   0.1478   0.1478   0.1478   0.1955   0.1955
     0.1955   0.1955   0.1955   0.1955   0.6810   0.6810   0.6810   0.6810
     0.6810   0.6810   0.6810   0.6810   0.6810   0.6810   0.6810   0.6810
     0.6905   0.6905   0.6905   0.6905   0.7175   0.7175   0.7175   0.7175
     0.7176   0.7176   0.7176   0.7176   0.7176   0.7176   0.7176   0.7176
     1.3403   1.3403   1.3403   1.3403   1.3403   1.3403   1.3623   1.3623
     1.3623   1.3623   1.3623   1.3623   1.7644   1.7644   1.7644   1.7644
     1.7644   1.7644   1.7881   1.7881   1.7881   1.7881   1.7881   1.7881
     2.8950   2.8950   2.8950   2.8950   2.8950   2.8950   2.8950   2.8950
     2.8950   2.8950   2.8950   2.8950   2.9137   2.9137   2.9137   2.9137
     2.9137   2.9137   2.9603   2.9603   2.9603   2.9603   2.9603   2.9603
     2.9603   2.9603   2.9603   2.9603   2.9603   2.9603   2.9725   2.9725
     2.9725   2.9725   2.9725   2.9725   3.0087   3.0087   3.0087   3.0087
     3.0087   3.0087   3.0249   3.0249   3.0249   3.0249   3.0249   3.0249
     3.4814   3.4814   3.4814   3.4814   3.4814   3.4814   3.5200   3.5200
     3.5200   3.5200   3.5200   3.5200   3.5329   3.5329   3.5329   3.5329
     3.5329   3.5329   3.5329   3.5329   3.5329   3.5329   3.5329   3.5329
     3.5915   3.5915   3.5915   3.5915   3.5915   3.5915   3.5915   3.5915
     3.5915   3.5915   3.5915   3.5915   3.9670   3.9670   3.9670   3.9670
     3.9670   3.9670   3.9670   3.9670   3.9670   3.9670   3.9670   3.9670
     3.9956   3.9956   3.9956   3.9956   3.9956   3.9956   3.9956   3.9956
     3.9956   3.9956   3.9956   3.9956   4.1452   4.1452   4.1452   4.1452
     4.1452   4.1452   4.1509   4.1509   4.1509   4.1509   4.1509   4.1509
     4.1968   4.1968   4.1968   4.1968   4.1968   4.1968   4.2405   4.2405
     4.2405   4.2405   4.2405   4.2405   4.4269   4.4269   4.4269   4.4269
     4.4269   4.4269   4.4651   4.4651   4.4651   4.4651   4.4651   4.4651
     4.5167   4.5167   4.5167   4.5167   4.5167   4.5167   4.5635   4.5635
     4.5635   4.5635   4.5635   4.5635   4.6474   4.6474   4.6474   4.6474
     4.6474   4.6474   4.6569   4.6569   4.6569   4.6569   4.6569   4.6569
     4.7137   4.7137   4.7137   4.7137   4.9217   4.9217   4.9217   4.9217
     4.9217   4.9217   4.9217   4.9217   4.9217   4.9217   4.9217   4.9217
     4.9361   4.9361   4.9361   4.9361   4.9361   4.9361   4.9366   4.9366
     4.9366   4.9366   4.9366   4.9366   4.9542   4.9542   4.9542   4.9542
     4.9542   4.9542   4.9542   4.9542   4.9542   4.9542   4.9542   4.9542
     5.2464   5.2464   5.2464   5.2464   5.2464   5.2464   5.2505   5.2505
     5.2505   5.2505   5.2505   5.2505   5.4295   5.4295   5.4295   5.4295
     5.4295   5.4295   5.4780   5.4780   5.4780   5.4780   5.4780   5.4780
     5.5786   5.5786   5.5786   5.5786   5.6060   5.6060   5.6060   5.6060
     5.6060   5.6060   5.6212   5.6212   5.6212   5.6212   5.6212   5.6212
     5.7949   5.7949   5.7973   5.7973   6.0000   6.0000   6.0000   6.0000
     6.0000   6.0000   6.0000   6.0000   6.0000   6.0000   6.0000   6.0000
     6.3863   6.3863   6.3863   6.3863   6.6109   6.6109   6.6140   6.6140
     7.7791   7.7791   7.7791   7.7791   8.3017   8.3017   8.3017   8.3017
     8.3017   8.3017   8.3027   8.3027   8.3027   8.3027   8.3067   8.3067
     8.3067   8.3067   8.3067   8.3067   8.7391   8.7391   8.7391   8.7391
     8.7391   8.7391   8.7406   8.7406   8.7406   8.7406   8.7406   8.7406
     8.7452   8.7452   8.7452   8.7452   8.7452   8.7452   8.7691   8.7691
     8.7691   8.7691   8.7691   8.7691   8.9947   8.9947   8.9947   8.9947
     8.9947   8.9947   9.0386   9.0386   9.0386   9.0386   9.0386   9.0386
     9.0490   9.0490   9.0490   9.0490   9.0490   9.0490   9.0636   9.0636
     9.0636   9.0636   9.0636   9.0636   9.2145   9.2145   9.2145   9.2145
     9.2145   9.2145   9.2646   9.2646   9.2646   9.2646   9.2646   9.2646
     9.2950   9.2950   9.2950   9.2950   9.2950   9.2950   9.3268   9.3268
     9.3268   9.3268   9.3268   9.3268   9.6409   9.6409   9.6409   9.6409
     9.6409   9.6409   9.6409   9.6409   9.6409   9.6409   9.6409   9.6409
     9.6716   9.6716   9.6716   9.6716   9.6716   9.6716   9.6716   9.6716
     9.6716   9.6716   9.6716   9.6716   9.7624   9.7624   9.7624   9.7624
     9.7624   9.7624   9.7624   9.7624   9.7624   9.7624   9.7624   9.7624
     9.8251   9.8251   9.8251   9.8251   9.8251   9.8251   9.8251   9.8251
     9.8251   9.8251   9.8251   9.8251   9.9848   9.9848   9.9848   9.9848
     9.9848   9.9848  10.0164  10.0164  10.0164  10.0164  10.0164  10.0164
    10.1112  10.1112  10.1112  10.1112  10.1112  10.1112  10.1260  10.1260
    10.1260  10.1260  10.1260  10.1260  10.7092  10.7092  10.7092  10.7092
    10.8567  10.8567  10.8582  10.8582  10.8597  10.8597  10.8597  10.8597
    10.8597  10.8597  10.8597  10.8597  10.8597  10.8597  10.8597  10.8597
    10.8908  10.8908  10.8908  10.8908  10.8908  10.8908  10.8908  10.8908
    10.8908  10.8908  10.8908  10.8908  10.9070  10.9070  10.9070  10.9070
    11.0096  11.0096  11.0096  11.0097  11.0097  11.0097  11.0185  11.0185
    11.0185  11.0185  11.0185  11.0185  11.3824  11.3825  11.3825  11.3825
    11.3825  11.3825  11.3827  11.3828  11.3829  11.3832  11.3833  11.3835
    11.4020  11.4023  11.4023  11.4025  11.4027  11.4029

     the Fermi energy is     7.0201 ev

!    total energy              =  -12205.34451213 Ry
     estimated scf accuracy    <          9.8E-09 Ry
     smearing contrib. (-TS)   =      -0.00000000 Ry
     internal energy E=F+TS    =  -12205.34451213 Ry

     The total energy is F=E-TS. E is the sum of the following terms:
     one-electron contribution =   -7107.67959902 Ry
     hartree contribution      =    4557.09866603 Ry
     xc contribution           =   -3655.74709150 Ry
     ewald contribution        =   -5999.01648764 Ry

     convergence has been achieved in  12 iterations

     Writing all to output data dir ./GaAs.save/
 
     init_run     :   1094.94s CPU   1117.58s WALL (       1 calls)
     electrons    :  40742.44s CPU  41430.42s WALL (       1 calls)

     Called by init_run:
     wfcinit      :   1084.51s CPU   1105.61s WALL (       1 calls)
     potinit      :      0.61s CPU      0.68s WALL (       1 calls)
     hinit0       :      0.73s CPU      0.81s WALL (       1 calls)

     Called by electrons:
     c_bands      :  35120.17s CPU  35694.80s WALL (      13 calls)
     sum_band     :   5543.57s CPU   5640.71s WALL (      13 calls)
     v_of_rho     :      1.02s CPU      1.10s WALL (      13 calls)
     newd         :     73.71s CPU     90.41s WALL (      13 calls)
     mix_rho      :      6.04s CPU      6.45s WALL (      13 calls)

     Called by c_bands:
     init_us_2    :     34.37s CPU     34.79s WALL (     216 calls)
     init_us_2:cp :     34.37s CPU     34.79s WALL (     216 calls)
     cegterg      :  34614.82s CPU  35181.56s WALL (     104 calls)

     Called by *egterg:
     cdiaghg      :    792.83s CPU    816.70s WALL (     551 calls)
     h_psi        :  18454.15s CPU  18859.21s WALL (     567 calls)
     s_psi        :   5253.99s CPU   5294.44s WALL (     567 calls)
     g_psi        :     27.71s CPU     27.93s WALL (     455 calls)

     Called by h_psi:
     h_psi:calbec :   3576.21s CPU   3596.37s WALL (     567 calls)
     vloc_psi     :  11133.25s CPU  11456.96s WALL (     567 calls)
     add_vuspsi   :   3701.04s CPU   3734.41s WALL (     567 calls)

     General routines
     calbec       :   4988.25s CPU   5016.46s WALL (     671 calls)
     fft          :      5.54s CPU      6.23s WALL (     185 calls)
     ffts         :      0.86s CPU      0.95s WALL (     104 calls)
     fftw         :   7355.38s CPU   7694.22s WALL ( 1735996 calls)
     interpolate  :      2.31s CPU      2.52s WALL (      52 calls)
 
     Parallel routines
 
     PWSCF        :     11h38m CPU     11h50m WALL

 
   This run was terminated on:   6:23:15  27May2024            

=------------------------------------------------------------------------------=
   JOB DONE.
=------------------------------------------------------------------------------=
